
     Program PWSCF v.6.8 starts on 21Oct2021 at 17:39: 5 

     This program is part of the open-source Quantum ESPRESSO suite
     for quantum simulation of materials; please cite
         "P. Giannozzi et al., J. Phys.:Condens. Matter 21 395502 (2009);
         "P. Giannozzi et al., J. Phys.:Condens. Matter 29 465901 (2017);
         "P. Giannozzi et al., J. Chem. Phys. 152 154105 (2020);
          URL http://www.quantum-espresso.org", 
     in publications or presentations arising from this work. More details at
     http://www.quantum-espresso.org/quote

     Parallel version (MPI), running on    24 processors

     MPI processes distributed on     1 nodes
     R & G space division:  proc/nbgrp/npool/nimage =      24
     60205 MiB available memory on the printing compute node when the environment starts
 
     Reading input from Dst02_05.in

     Current dimensions of program PWSCF are:
     Max number of different atomic species (ntypx) = 10
     Max number of k-points (npk) =  40000
     Max angular momentum in pseudopotentials (lmaxx) =  4
     Message from routine iosys:
     BEWARE:  force calculation with tetrahedra (not recommanded)
     Message from routine iosys:
     BEWARE: stress calculation with tetrahedra (not recommanded)
     file Si.pbe-n-kjpaw_psl.1.0.0.UPF: wavefunction(s)  3S 3P renormalized
     file C.pbe-n-kjpaw_psl.1.0.0.UPF: wavefunction(s)  2S 2P renormalized
     Message from routine setup:
     using ibrav=0 with symmetry is DISCOURAGED, use correct ibrav instead

     Subspace diagonalization in iterative solution of the eigenvalue problem:
     one sub-group per band group will be used
     scalapack distributed-memory algorithm (size of sub-group:  4*  4 procs)

 
     Parallelization info
     --------------------
     sticks:   dense  smooth     PW     G-vecs:    dense   smooth      PW
     Min          46      23      7                 1026      362      63
     Max          47      24      8                 1029      365      65
     Sum        1123     559    179                24653     8713    1535
 
     Using Slab Decomposition
 


     bravais-lattice index     =            0
     lattice parameter (alat)  =       8.2762  a.u.
     unit-cell volume          =     138.8846 (a.u.)^3
     number of atoms/cell      =            2
     number of atomic types    =            2
     number of electrons       =         8.00
     number of Kohn-Sham states=            8
     kinetic-energy cutoff     =      60.0000  Ry
     charge density cutoff     =     480.0000  Ry
     scf convergence threshold =      1.0E-12
     mixing beta               =       0.7000
     number of iterations used =            8  plain     mixing
     energy convergence thresh.=      1.0E-05
     force convergence thresh. =      1.0E-04
     Exchange-correlation= SLA  PW   PBX  PBC
                           (   1   4   3   4   0   0   0)
     nstep                     =           50


     celldm(1)=   8.276169  celldm(2)=   0.000000  celldm(3)=   0.000000
     celldm(4)=   0.000000  celldm(5)=   0.000000  celldm(6)=   0.000000

     crystal axes: (cart. coord. in units of alat)
               a(1) = (  -0.494975   0.000000   0.500000 )  
               a(2) = (   0.000000   0.494975   0.500000 )  
               a(3) = (  -0.494975   0.494975   0.000000 )  

     reciprocal axes: (cart. coord. in units 2 pi/alat)
               b(1) = ( -1.010153 -1.010153  1.000000 )  
               b(2) = (  1.010153  1.010153  1.000000 )  
               b(3) = ( -1.010153  1.010153 -1.000000 )  


     PseudoPot. # 1 for Si read from file:
     /opt/pbe/Si.pbe-n-kjpaw_psl.1.0.0.UPF
     MD5 check sum: c0017aaf58f3391b47f56383898ff6ca
     Pseudo is Projector augmented-wave + core cor, Zval =  4.0
     Generated using 'atomic' code by A. Dal Corso  v.6.7MaX
     Shape of augmentation charge: PSQ
     Using radial grid of 1141 points,  6 beta functions with: 
                l(1) =   0
                l(2) =   0
                l(3) =   1
                l(4) =   1
                l(5) =   2
                l(6) =   2
     Q(r) pseudized with 0 coefficients 


     PseudoPot. # 2 for C  read from file:
     /opt/pbe/C.pbe-n-kjpaw_psl.1.0.0.UPF
     MD5 check sum: 8e1159f88321651dfc8dcabf1d078809
     Pseudo is Projector augmented-wave + core cor, Zval =  4.0
     Generated using 'atomic' code by A. Dal Corso  v.6.7MaX
     Shape of augmentation charge: PSQ
     Using radial grid of 1073 points,  4 beta functions with: 
                l(1) =   0
                l(2) =   0
                l(3) =   1
                l(4) =   1
     Q(r) pseudized with 0 coefficients 


     atomic species   valence    mass     pseudopotential
        Si             4.00    28.08500     Si( 1.00)
        C              4.00    12.01100     C ( 1.00)

      8 Sym. Ops. (no inversion) found



   Cartesian axes

     site n.     atom                  positions (alat units)
         1           Si  tau(   1) = (  -0.2474874   0.2474874   0.2500000  )
         2           C   tau(   2) = (   0.0000000   0.0000000   0.0000000  )

     number of k points=   244 (tetrahedron method)

     Number of k-points >= 100: set verbosity='high' to print them.

     Dense  grid:    24653 G-vectors     FFT dimensions: (  45,  45,  45)

     Smooth grid:     8713 G-vectors     FFT dimensions: (  30,  30,  30)

     Estimated max dynamical RAM per process >       8.76 MB

     Estimated total dynamical RAM >     210.24 MB

     Initial potential from superposition of free atoms

     starting charge    7.99940, renormalised to    8.00000
     Starting wfcs are    8 randomized atomic wfcs
     Checking if some PAW data can be deallocated... 

     total cpu time spent up to now is        1.0 secs

     Self-consistent Calculation

     iteration #  1     ecut=    60.00 Ry     beta= 0.70
     Davidson diagonalization with overlap
     ethr =  1.00E-02,  avg # of iterations =  3.8

     total cpu time spent up to now is        3.1 secs

     total energy              =     -65.03733690 Ry
     estimated scf accuracy    <       0.44242079 Ry

     iteration #  2     ecut=    60.00 Ry     beta= 0.70
     Davidson diagonalization with overlap
     ethr =  5.53E-03,  avg # of iterations =  2.0

     total cpu time spent up to now is        4.7 secs

     total energy              =     -65.16908399 Ry
     estimated scf accuracy    <       0.17594574 Ry

     iteration #  3     ecut=    60.00 Ry     beta= 0.70
     Davidson diagonalization with overlap
     ethr =  2.20E-03,  avg # of iterations =  1.0

     total cpu time spent up to now is        5.8 secs

     total energy              =     -65.19840051 Ry
     estimated scf accuracy    <       0.00197492 Ry

     iteration #  4     ecut=    60.00 Ry     beta= 0.70
     Davidson diagonalization with overlap
     ethr =  2.47E-05,  avg # of iterations =  4.5

     total cpu time spent up to now is        8.4 secs

     total energy              =     -65.19952470 Ry
     estimated scf accuracy    <       0.00094092 Ry

     iteration #  5     ecut=    60.00 Ry     beta= 0.70
     Davidson diagonalization with overlap
     ethr =  1.18E-05,  avg # of iterations =  1.7

     total cpu time spent up to now is        9.8 secs

     total energy              =     -65.19969273 Ry
     estimated scf accuracy    <       0.00000221 Ry

     iteration #  6     ecut=    60.00 Ry     beta= 0.70
     Davidson diagonalization with overlap
     ethr =  2.77E-08,  avg # of iterations =  4.6

     total cpu time spent up to now is       12.4 secs

     total energy              =     -65.19969877 Ry
     estimated scf accuracy    <       0.00000576 Ry

     iteration #  7     ecut=    60.00 Ry     beta= 0.70
     Davidson diagonalization with overlap
     ethr =  2.77E-08,  avg # of iterations =  2.0

     total cpu time spent up to now is       13.9 secs

     total energy              =     -65.19969961 Ry
     estimated scf accuracy    <       0.00000008 Ry

     iteration #  8     ecut=    60.00 Ry     beta= 0.70
     Davidson diagonalization with overlap
     ethr =  1.01E-09,  avg # of iterations =  2.4

     total cpu time spent up to now is       15.6 secs

     total energy              =     -65.19969964 Ry
     estimated scf accuracy    <          3.9E-10 Ry

     iteration #  9     ecut=    60.00 Ry     beta= 0.70
     Davidson diagonalization with overlap
     ethr =  4.91E-12,  avg # of iterations =  3.9

     total cpu time spent up to now is       17.9 secs

     total energy              =     -65.19969964 Ry
     estimated scf accuracy    <          5.8E-11 Ry

     iteration # 10     ecut=    60.00 Ry     beta= 0.70
     Davidson diagonalization with overlap
     ethr =  7.25E-13,  avg # of iterations =  2.0

     total cpu time spent up to now is       19.4 secs

     total energy              =     -65.19969964 Ry
     estimated scf accuracy    <          5.2E-11 Ry

     iteration # 11     ecut=    60.00 Ry     beta= 0.70
     Davidson diagonalization with overlap
     ethr =  6.52E-13,  avg # of iterations =  1.0

     total cpu time spent up to now is       20.6 secs

     total energy              =     -65.19969964 Ry
     estimated scf accuracy    <          1.3E-12 Ry

     iteration # 12     ecut=    60.00 Ry     beta= 0.70
     Davidson diagonalization with overlap
     ethr =  1.00E-13,  avg # of iterations =  1.1

     total cpu time spent up to now is       21.7 secs

     End of self-consistent calculation

     Number of k-points >= 100: set verbosity='high' to print the bands.

     the Fermi energy is    10.7797 ev

!    total energy              =     -65.19969964 Ry

     total all-electron energy =      -656.309662 Ry
     estimated scf accuracy    <          4.4E-14 Ry

     The total energy is the sum of the following terms:
     one-electron contribution =       6.16747045 Ry
     hartree contribution      =       2.32817235 Ry
     xc contribution           =     -10.98178883 Ry
     ewald contribution        =     -20.96924217 Ry
     one-center paw contrib.   =     -41.74431145 Ry

     convergence has been achieved in  12 iterations

     Forces acting on atoms (cartesian axes, Ry/au):

     atom    1 type  1   force =     0.00000000    0.00000000    0.00000000
     atom    2 type  2   force =     0.00000000    0.00000000    0.00000000

     Total force =     0.000000     Total SCF correction =     0.000000


     Computing stress (Cartesian axis) and pressure

          total   stress  (Ry/bohr**3)                   (kbar)     P=       45.26
   0.00036781   0.00000000  -0.00000000           54.11        0.00       -0.00
   0.00000000   0.00036781   0.00000000            0.00       54.11        0.00
   0.00000000   0.00000000   0.00018736            0.00        0.00       27.56


     BFGS Geometry Optimization
     Energy error            =      0.0E+00 Ry
     Gradient error          =      0.0E+00 Ry/Bohr

     bfgs converged in   1 scf cycles and   0 bfgs steps
     (criteria: energy <  1.0E-05 Ry, force <  1.0E-04 Ry/Bohr)

     End of BFGS Geometry Optimization

     Final energy             =     -65.1996996421 Ry
Begin final coordinates

ATOMIC_POSITIONS (crystal)
Si            0.2500000000        0.2500000000        0.2500000000
C             0.0000000000        0.0000000000        0.0000000000
End final coordinates



     Writing output data file ./tmp/SiC.save/
 
     init_run     :      0.55s CPU      0.69s WALL (       1 calls)
     electrons    :     16.65s CPU     20.74s WALL (       1 calls)
     forces       :      0.07s CPU      0.07s WALL (       1 calls)
     stress       :      0.18s CPU      0.18s WALL (       1 calls)

     Called by init_run:
     wfcinit      :      0.39s CPU      0.48s WALL (       1 calls)
     potinit      :      0.06s CPU      0.08s WALL (       1 calls)
     hinit0       :      0.08s CPU      0.11s WALL (       1 calls)

     Called by electrons:
     c_bands      :     14.51s CPU     18.39s WALL (      12 calls)
     sum_band     :      1.45s CPU      1.62s WALL (      12 calls)
     v_of_rho     :      0.03s CPU      0.03s WALL (      13 calls)
     newd         :      0.07s CPU      0.07s WALL (      13 calls)
     PAW_pot      :      0.62s CPU      0.66s WALL (      13 calls)
     mix_rho      :      0.00s CPU      0.01s WALL (      12 calls)

     Called by c_bands:
     init_us_2    :      0.14s CPU      0.17s WALL (    6588 calls)
     cegterg      :     14.16s CPU     17.98s WALL (    2928 calls)

     Called by *egterg:
     cdiaghg      :      6.78s CPU      9.50s WALL (   10297 calls)
     h_psi        :      4.72s CPU      5.62s WALL (   10541 calls)
     s_psi        :      0.08s CPU      0.08s WALL (   10541 calls)
     g_psi        :      0.01s CPU      0.02s WALL (    7369 calls)

     Called by h_psi:
     h_psi:calbec :      0.18s CPU      0.21s WALL (   10541 calls)
     vloc_psi     :      4.43s CPU      5.25s WALL (   10541 calls)
     add_vuspsi   :      0.08s CPU      0.10s WALL (   10541 calls)

     General routines
     calbec       :      0.22s CPU      0.27s WALL (   14689 calls)
     fft          :      0.05s CPU      0.07s WALL (     192 calls)
     ffts         :      0.00s CPU      0.00s WALL (      25 calls)
     fftw         :      4.94s CPU      5.85s WALL (  151270 calls)
     interpolate  :      0.00s CPU      0.00s WALL (      13 calls)
 
     Parallel routines
 
     PWSCF        :     17.87s CPU     23.04s WALL

 
   This run was terminated on:  17:39:28  21Oct2021            

=------------------------------------------------------------------------------=
   JOB DONE.
=------------------------------------------------------------------------------=
