
     Program PWSCF v.6.8 starts on 21Oct2021 at 17:36:20 

     This program is part of the open-source Quantum ESPRESSO suite
     for quantum simulation of materials; please cite
         "P. Giannozzi et al., J. Phys.:Condens. Matter 21 395502 (2009);
         "P. Giannozzi et al., J. Phys.:Condens. Matter 29 465901 (2017);
         "P. Giannozzi et al., J. Chem. Phys. 152 154105 (2020);
          URL http://www.quantum-espresso.org", 
     in publications or presentations arising from this work. More details at
     http://www.quantum-espresso.org/quote

     Parallel version (MPI), running on    24 processors

     MPI processes distributed on     1 nodes
     R & G space division:  proc/nbgrp/npool/nimage =      24
     60204 MiB available memory on the printing compute node when the environment starts
 
     Reading input from Dst01_06.in

     Current dimensions of program PWSCF are:
     Max number of different atomic species (ntypx) = 10
     Max number of k-points (npk) =  40000
     Max angular momentum in pseudopotentials (lmaxx) =  4
     Message from routine iosys:
     BEWARE:  force calculation with tetrahedra (not recommanded)
     Message from routine iosys:
     BEWARE: stress calculation with tetrahedra (not recommanded)
     file Si.pbe-n-kjpaw_psl.1.0.0.UPF: wavefunction(s)  3S 3P renormalized
     file C.pbe-n-kjpaw_psl.1.0.0.UPF: wavefunction(s)  2S 2P renormalized
     Message from routine setup:
     using ibrav=0 with symmetry is DISCOURAGED, use correct ibrav instead

     Subspace diagonalization in iterative solution of the eigenvalue problem:
     one sub-group per band group will be used
     scalapack distributed-memory algorithm (size of sub-group:  4*  4 procs)

 
     Parallelization info
     --------------------
     sticks:   dense  smooth     PW     G-vecs:    dense   smooth      PW
     Min          47      23      7                 1046      368      67
     Max          48      24      9                 1048      372      69
     Sum        1135     571    187                25125     8873    1639
 
     Using Slab Decomposition
 


     bravais-lattice index     =            0
     lattice parameter (alat)  =       8.2762  a.u.
     unit-cell volume          =     141.7615 (a.u.)^3
     number of atoms/cell      =            2
     number of atomic types    =            2
     number of electrons       =         8.00
     number of Kohn-Sham states=            8
     kinetic-energy cutoff     =      60.0000  Ry
     charge density cutoff     =     480.0000  Ry
     scf convergence threshold =      1.0E-12
     mixing beta               =       0.7000
     number of iterations used =            8  plain     mixing
     energy convergence thresh.=      1.0E-05
     force convergence thresh. =      1.0E-04
     Exchange-correlation= SLA  PW   PBX  PBC
                           (   1   4   3   4   0   0   0)
     nstep                     =           50


     celldm(1)=   8.276169  celldm(2)=   0.000000  celldm(3)=   0.000000
     celldm(4)=   0.000000  celldm(5)=   0.000000  celldm(6)=   0.000000

     crystal axes: (cart. coord. in units of alat)
               a(1) = (  -0.500050   0.000000   0.500050 )  
               a(2) = (   0.000000   0.500050   0.500050 )  
               a(3) = (  -0.500050   0.500050   0.000000 )  

     reciprocal axes: (cart. coord. in units 2 pi/alat)
               b(1) = ( -0.999900 -0.999900  0.999900 )  
               b(2) = (  0.999900  0.999900  0.999900 )  
               b(3) = ( -0.999900  0.999900 -0.999900 )  


     PseudoPot. # 1 for Si read from file:
     /opt/pbe/Si.pbe-n-kjpaw_psl.1.0.0.UPF
     MD5 check sum: c0017aaf58f3391b47f56383898ff6ca
     Pseudo is Projector augmented-wave + core cor, Zval =  4.0
     Generated using 'atomic' code by A. Dal Corso  v.6.7MaX
     Shape of augmentation charge: PSQ
     Using radial grid of 1141 points,  6 beta functions with: 
                l(1) =   0
                l(2) =   0
                l(3) =   1
                l(4) =   1
                l(5) =   2
                l(6) =   2
     Q(r) pseudized with 0 coefficients 


     PseudoPot. # 2 for C  read from file:
     /opt/pbe/C.pbe-n-kjpaw_psl.1.0.0.UPF
     MD5 check sum: 8e1159f88321651dfc8dcabf1d078809
     Pseudo is Projector augmented-wave + core cor, Zval =  4.0
     Generated using 'atomic' code by A. Dal Corso  v.6.7MaX
     Shape of augmentation charge: PSQ
     Using radial grid of 1073 points,  4 beta functions with: 
                l(1) =   0
                l(2) =   0
                l(3) =   1
                l(4) =   1
     Q(r) pseudized with 0 coefficients 


     atomic species   valence    mass     pseudopotential
        Si             4.00    28.08500     Si( 1.00)
        C              4.00    12.01100     C ( 1.00)

     24 Sym. Ops. (no inversion) found



   Cartesian axes

     site n.     atom                  positions (alat units)
         1           Si  tau(   1) = (  -0.2500250   0.2500250   0.2500250  )
         2           C   tau(   2) = (   0.0000000   0.0000000   0.0000000  )

     number of k points=   104 (tetrahedron method)

     Number of k-points >= 100: set verbosity='high' to print them.

     Dense  grid:    25125 G-vectors     FFT dimensions: (  45,  45,  45)

     Smooth grid:     8873 G-vectors     FFT dimensions: (  30,  30,  30)

     Estimated max dynamical RAM per process >       8.07 MB

     Estimated total dynamical RAM >     193.70 MB

     Initial potential from superposition of free atoms

     starting charge    7.99940, renormalised to    8.00000
     Starting wfcs are    8 randomized atomic wfcs
     Checking if some PAW data can be deallocated... 

     total cpu time spent up to now is        0.7 secs

     Self-consistent Calculation

     iteration #  1     ecut=    60.00 Ry     beta= 0.70
     Davidson diagonalization with overlap
     ethr =  1.00E-02,  avg # of iterations =  3.7

     total cpu time spent up to now is        1.7 secs

     total energy              =     -65.03941816 Ry
     estimated scf accuracy    <       0.43386562 Ry

     iteration #  2     ecut=    60.00 Ry     beta= 0.70
     Davidson diagonalization with overlap
     ethr =  5.42E-03,  avg # of iterations =  2.0

     total cpu time spent up to now is        2.4 secs

     total energy              =     -65.16853914 Ry
     estimated scf accuracy    <       0.18181822 Ry

     iteration #  3     ecut=    60.00 Ry     beta= 0.70
     Davidson diagonalization with overlap
     ethr =  2.27E-03,  avg # of iterations =  1.0

     total cpu time spent up to now is        2.9 secs

     total energy              =     -65.19892033 Ry
     estimated scf accuracy    <       0.00199787 Ry

     iteration #  4     ecut=    60.00 Ry     beta= 0.70
     Davidson diagonalization with overlap
     ethr =  2.50E-05,  avg # of iterations =  4.4

     total cpu time spent up to now is        4.0 secs

     total energy              =     -65.20006007 Ry
     estimated scf accuracy    <       0.00095394 Ry

     iteration #  5     ecut=    60.00 Ry     beta= 0.70
     Davidson diagonalization with overlap
     ethr =  1.19E-05,  avg # of iterations =  1.8

     total cpu time spent up to now is        4.7 secs

     total energy              =     -65.20022853 Ry
     estimated scf accuracy    <       0.00000237 Ry

     iteration #  6     ecut=    60.00 Ry     beta= 0.70
     Davidson diagonalization with overlap
     ethr =  2.96E-08,  avg # of iterations =  4.6

     total cpu time spent up to now is        5.8 secs

     total energy              =     -65.20023464 Ry
     estimated scf accuracy    <       0.00000629 Ry

     iteration #  7     ecut=    60.00 Ry     beta= 0.70
     Davidson diagonalization with overlap
     ethr =  2.96E-08,  avg # of iterations =  2.0

     total cpu time spent up to now is        6.5 secs

     total energy              =     -65.20023553 Ry
     estimated scf accuracy    <       0.00000010 Ry

     iteration #  8     ecut=    60.00 Ry     beta= 0.70
     Davidson diagonalization with overlap
     ethr =  1.21E-09,  avg # of iterations =  2.4

     total cpu time spent up to now is        7.3 secs

     total energy              =     -65.20023557 Ry
     estimated scf accuracy    <          4.5E-10 Ry

     iteration #  9     ecut=    60.00 Ry     beta= 0.70
     Davidson diagonalization with overlap
     ethr =  5.57E-12,  avg # of iterations =  3.9

     total cpu time spent up to now is        8.3 secs

     total energy              =     -65.20023557 Ry
     estimated scf accuracy    <          8.0E-11 Ry

     iteration # 10     ecut=    60.00 Ry     beta= 0.70
     Davidson diagonalization with overlap
     ethr =  9.95E-13,  avg # of iterations =  2.1

     total cpu time spent up to now is        9.1 secs

     total energy              =     -65.20023557 Ry
     estimated scf accuracy    <          7.0E-11 Ry

     iteration # 11     ecut=    60.00 Ry     beta= 0.70
     Davidson diagonalization with overlap
     ethr =  8.80E-13,  avg # of iterations =  1.0

     total cpu time spent up to now is        9.6 secs

     total energy              =     -65.20023557 Ry
     estimated scf accuracy    <          2.0E-12 Ry

     iteration # 12     ecut=    60.00 Ry     beta= 0.70
     Davidson diagonalization with overlap
     ethr =  1.00E-13,  avg # of iterations =  1.3

     total cpu time spent up to now is       10.1 secs

     End of self-consistent calculation

     Number of k-points >= 100: set verbosity='high' to print the bands.

     the Fermi energy is    10.3859 ev

!    total energy              =     -65.20023557 Ry

     total all-electron energy =      -656.310198 Ry
     estimated scf accuracy    <          1.5E-13 Ry

     The total energy is the sum of the following terms:
     one-electron contribution =       5.97433505 Ry
     hartree contribution      =       2.34365447 Ry
     xc contribution           =     -10.94987387 Ry
     ewald contribution        =     -20.82609749 Ry
     one-center paw contrib.   =     -41.74225372 Ry

     convergence has been achieved in  12 iterations

     Forces acting on atoms (cartesian axes, Ry/au):

     atom    1 type  1   force =     0.00000000    0.00000000   -0.00000000
     atom    2 type  2   force =    -0.00000000   -0.00000000    0.00000000

     Total force =     0.000000     Total SCF correction =     0.000000


     Computing stress (Cartesian axis) and pressure

          total   stress  (Ry/bohr**3)                   (kbar)     P=       -0.19
  -0.00000126  -0.00000000  -0.00000000           -0.19       -0.00       -0.00
  -0.00000000  -0.00000126   0.00000000           -0.00       -0.19        0.00
  -0.00000000   0.00000000  -0.00000126           -0.00        0.00       -0.19


     BFGS Geometry Optimization
     Energy error            =      0.0E+00 Ry
     Gradient error          =      1.6E-32 Ry/Bohr

     bfgs converged in   1 scf cycles and   0 bfgs steps
     (criteria: energy <  1.0E-05 Ry, force <  1.0E-04 Ry/Bohr)

     End of BFGS Geometry Optimization

     Final energy             =     -65.2002355671 Ry
Begin final coordinates

ATOMIC_POSITIONS (crystal)
Si            0.2500000000        0.2500000000        0.2500000000
C             0.0000000000        0.0000000000        0.0000000000
End final coordinates



     Writing output data file ./tmp/SiC.save/
 
     init_run     :      0.31s CPU      0.39s WALL (       1 calls)
     electrons    :      7.82s CPU      9.46s WALL (       1 calls)
     forces       :      0.03s CPU      0.03s WALL (       1 calls)
     stress       :      0.08s CPU      0.09s WALL (       1 calls)

     Called by init_run:
     wfcinit      :      0.19s CPU      0.23s WALL (       1 calls)
     potinit      :      0.05s CPU      0.07s WALL (       1 calls)
     hinit0       :      0.05s CPU      0.07s WALL (       1 calls)

     Called by electrons:
     c_bands      :      6.25s CPU      7.79s WALL (      12 calls)
     sum_band     :      0.89s CPU      0.95s WALL (      12 calls)
     v_of_rho     :      0.03s CPU      0.03s WALL (      13 calls)
     newd         :      0.06s CPU      0.06s WALL (      13 calls)
     PAW_pot      :      0.61s CPU      0.65s WALL (      13 calls)
     mix_rho      :      0.01s CPU      0.01s WALL (      12 calls)

     Called by c_bands:
     init_us_2    :      0.06s CPU      0.07s WALL (    2808 calls)
     cegterg      :      6.11s CPU      7.62s WALL (    1248 calls)

     Called by *egterg:
     cdiaghg      :      2.95s CPU      4.04s WALL (    4377 calls)
     h_psi        :      2.03s CPU      2.37s WALL (    4481 calls)
     s_psi        :      0.03s CPU      0.04s WALL (    4481 calls)
     g_psi        :      0.01s CPU      0.01s WALL (    3129 calls)

     Called by h_psi:
     h_psi:calbec :      0.09s CPU      0.09s WALL (    4481 calls)
     vloc_psi     :      1.90s CPU      2.21s WALL (    4481 calls)
     add_vuspsi   :      0.03s CPU      0.04s WALL (    4481 calls)

     General routines
     calbec       :      0.11s CPU      0.12s WALL (    6249 calls)
     fft          :      0.03s CPU      0.05s WALL (     192 calls)
     ffts         :      0.00s CPU      0.00s WALL (      25 calls)
     fftw         :      2.15s CPU      2.47s WALL (   64196 calls)
     interpolate  :      0.00s CPU      0.00s WALL (      13 calls)
 
     Parallel routines
 
     PWSCF        :      8.61s CPU     10.80s WALL

 
   This run was terminated on:  17:36:31  21Oct2021            

=------------------------------------------------------------------------------=
   JOB DONE.
=------------------------------------------------------------------------------=
