
     Program PWSCF v.6.8 starts on 21Oct2021 at 17:40:18 

     This program is part of the open-source Quantum ESPRESSO suite
     for quantum simulation of materials; please cite
         "P. Giannozzi et al., J. Phys.:Condens. Matter 21 395502 (2009);
         "P. Giannozzi et al., J. Phys.:Condens. Matter 29 465901 (2017);
         "P. Giannozzi et al., J. Chem. Phys. 152 154105 (2020);
          URL http://www.quantum-espresso.org", 
     in publications or presentations arising from this work. More details at
     http://www.quantum-espresso.org/quote

     Parallel version (MPI), running on    24 processors

     MPI processes distributed on     1 nodes
     R & G space division:  proc/nbgrp/npool/nimage =      24
     60202 MiB available memory on the printing compute node when the environment starts
 
     Reading input from Dst02_08.in

     Current dimensions of program PWSCF are:
     Max number of different atomic species (ntypx) = 10
     Max number of k-points (npk) =  40000
     Max angular momentum in pseudopotentials (lmaxx) =  4
     Message from routine iosys:
     BEWARE:  force calculation with tetrahedra (not recommanded)
     Message from routine iosys:
     BEWARE: stress calculation with tetrahedra (not recommanded)
     file Si.pbe-n-kjpaw_psl.1.0.0.UPF: wavefunction(s)  3S 3P renormalized
     file C.pbe-n-kjpaw_psl.1.0.0.UPF: wavefunction(s)  2S 2P renormalized
     Message from routine setup:
     using ibrav=0 with symmetry is DISCOURAGED, use correct ibrav instead

     Subspace diagonalization in iterative solution of the eigenvalue problem:
     one sub-group per band group will be used
     scalapack distributed-memory algorithm (size of sub-group:  4*  4 procs)

 
     Parallelization info
     --------------------
     sticks:   dense  smooth     PW     G-vecs:    dense   smooth      PW
     Min          48      24      7                 1091      386      68
     Max          49      25      9                 1093      389      71
     Sum        1159     583    187                26197     9289    1671
 
     Using Slab Decomposition
 


     bravais-lattice index     =            0
     lattice parameter (alat)  =       8.2762  a.u.
     unit-cell volume          =     147.3878 (a.u.)^3
     number of atoms/cell      =            2
     number of atomic types    =            2
     number of electrons       =         8.00
     number of Kohn-Sham states=            8
     kinetic-energy cutoff     =      60.0000  Ry
     charge density cutoff     =     480.0000  Ry
     scf convergence threshold =      1.0E-12
     mixing beta               =       0.7000
     number of iterations used =            8  plain     mixing
     energy convergence thresh.=      1.0E-05
     force convergence thresh. =      1.0E-04
     Exchange-correlation= SLA  PW   PBX  PBC
                           (   1   4   3   4   0   0   0)
     nstep                     =           50


     celldm(1)=   8.276169  celldm(2)=   0.000000  celldm(3)=   0.000000
     celldm(4)=   0.000000  celldm(5)=   0.000000  celldm(6)=   0.000000

     crystal axes: (cart. coord. in units of alat)
               a(1) = (  -0.509902   0.000000   0.500000 )  
               a(2) = (   0.000000   0.509902   0.500000 )  
               a(3) = (  -0.509902   0.509902   0.000000 )  

     reciprocal axes: (cart. coord. in units 2 pi/alat)
               b(1) = ( -0.980581 -0.980581  1.000000 )  
               b(2) = (  0.980581  0.980581  1.000000 )  
               b(3) = ( -0.980581  0.980581 -1.000000 )  


     PseudoPot. # 1 for Si read from file:
     /opt/pbe/Si.pbe-n-kjpaw_psl.1.0.0.UPF
     MD5 check sum: c0017aaf58f3391b47f56383898ff6ca
     Pseudo is Projector augmented-wave + core cor, Zval =  4.0
     Generated using 'atomic' code by A. Dal Corso  v.6.7MaX
     Shape of augmentation charge: PSQ
     Using radial grid of 1141 points,  6 beta functions with: 
                l(1) =   0
                l(2) =   0
                l(3) =   1
                l(4) =   1
                l(5) =   2
                l(6) =   2
     Q(r) pseudized with 0 coefficients 


     PseudoPot. # 2 for C  read from file:
     /opt/pbe/C.pbe-n-kjpaw_psl.1.0.0.UPF
     MD5 check sum: 8e1159f88321651dfc8dcabf1d078809
     Pseudo is Projector augmented-wave + core cor, Zval =  4.0
     Generated using 'atomic' code by A. Dal Corso  v.6.7MaX
     Shape of augmentation charge: PSQ
     Using radial grid of 1073 points,  4 beta functions with: 
                l(1) =   0
                l(2) =   0
                l(3) =   1
                l(4) =   1
     Q(r) pseudized with 0 coefficients 


     atomic species   valence    mass     pseudopotential
        Si             4.00    28.08500     Si( 1.00)
        C              4.00    12.01100     C ( 1.00)

      8 Sym. Ops. (no inversion) found



   Cartesian axes

     site n.     atom                  positions (alat units)
         1           Si  tau(   1) = (  -0.2549510   0.2549510   0.2500000  )
         2           C   tau(   2) = (   0.0000000   0.0000000   0.0000000  )

     number of k points=   244 (tetrahedron method)

     Number of k-points >= 100: set verbosity='high' to print them.

     Dense  grid:    26197 G-vectors     FFT dimensions: (  45,  45,  45)

     Smooth grid:     9289 G-vectors     FFT dimensions: (  30,  30,  30)

     Estimated max dynamical RAM per process >       9.08 MB

     Estimated total dynamical RAM >     217.90 MB

     Initial potential from superposition of free atoms

     starting charge    7.99940, renormalised to    8.00000
     Starting wfcs are    8 randomized atomic wfcs
     Checking if some PAW data can be deallocated... 

     total cpu time spent up to now is        0.9 secs

     Self-consistent Calculation

     iteration #  1     ecut=    60.00 Ry     beta= 0.70
     Davidson diagonalization with overlap
     ethr =  1.00E-02,  avg # of iterations =  3.6

     total cpu time spent up to now is        3.0 secs

     total energy              =     -65.04074044 Ry
     estimated scf accuracy    <       0.41787963 Ry

     iteration #  2     ecut=    60.00 Ry     beta= 0.70
     Davidson diagonalization with overlap
     ethr =  5.22E-03,  avg # of iterations =  2.0

     total cpu time spent up to now is        4.6 secs

     total energy              =     -65.16454190 Ry
     estimated scf accuracy    <       0.19343266 Ry

     iteration #  3     ecut=    60.00 Ry     beta= 0.70
     Davidson diagonalization with overlap
     ethr =  2.42E-03,  avg # of iterations =  1.0

     total cpu time spent up to now is        5.8 secs

     total energy              =     -65.19708819 Ry
     estimated scf accuracy    <       0.00202861 Ry

     iteration #  4     ecut=    60.00 Ry     beta= 0.70
     Davidson diagonalization with overlap
     ethr =  2.54E-05,  avg # of iterations =  4.6

     total cpu time spent up to now is        8.4 secs

     total energy              =     -65.19825991 Ry
     estimated scf accuracy    <       0.00096133 Ry

     iteration #  5     ecut=    60.00 Ry     beta= 0.70
     Davidson diagonalization with overlap
     ethr =  1.20E-05,  avg # of iterations =  1.7

     total cpu time spent up to now is        9.7 secs

     total energy              =     -65.19842139 Ry
     estimated scf accuracy    <       0.00000333 Ry

     iteration #  6     ecut=    60.00 Ry     beta= 0.70
     Davidson diagonalization with overlap
     ethr =  4.16E-08,  avg # of iterations =  4.3

     total cpu time spent up to now is       12.2 secs

     total energy              =     -65.19842795 Ry
     estimated scf accuracy    <       0.00000833 Ry

     iteration #  7     ecut=    60.00 Ry     beta= 0.70
     Davidson diagonalization with overlap
     ethr =  4.16E-08,  avg # of iterations =  2.1

     total cpu time spent up to now is       13.7 secs

     total energy              =     -65.19842900 Ry
     estimated scf accuracy    <       0.00000019 Ry

     iteration #  8     ecut=    60.00 Ry     beta= 0.70
     Davidson diagonalization with overlap
     ethr =  2.42E-09,  avg # of iterations =  2.2

     total cpu time spent up to now is       15.4 secs

     total energy              =     -65.19842906 Ry
     estimated scf accuracy    <          5.3E-10 Ry

     iteration #  9     ecut=    60.00 Ry     beta= 0.70
     Davidson diagonalization with overlap
     ethr =  6.67E-12,  avg # of iterations =  4.4

     total cpu time spent up to now is       17.8 secs

     total energy              =     -65.19842906 Ry
     estimated scf accuracy    <          6.0E-10 Ry

     iteration # 10     ecut=    60.00 Ry     beta= 0.70
     Davidson diagonalization with overlap
     ethr =  6.67E-12,  avg # of iterations =  2.0

     total cpu time spent up to now is       19.3 secs

     total energy              =     -65.19842906 Ry
     estimated scf accuracy    <          1.5E-10 Ry

     iteration # 11     ecut=    60.00 Ry     beta= 0.70
     Davidson diagonalization with overlap
     ethr =  1.83E-12,  avg # of iterations =  1.0

     total cpu time spent up to now is       20.5 secs

     total energy              =     -65.19842906 Ry
     estimated scf accuracy    <          1.0E-11 Ry

     iteration # 12     ecut=    60.00 Ry     beta= 0.70
     Davidson diagonalization with overlap
     ethr =  1.29E-13,  avg # of iterations =  1.9

     total cpu time spent up to now is       21.9 secs

     total energy              =     -65.19842906 Ry
     estimated scf accuracy    <          1.8E-12 Ry

     iteration # 13     ecut=    60.00 Ry     beta= 0.70
     Davidson diagonalization with overlap
     ethr =  1.00E-13,  avg # of iterations =  1.0

     total cpu time spent up to now is       23.0 secs

     End of self-consistent calculation

     Number of k-points >= 100: set verbosity='high' to print the bands.

     the Fermi energy is     9.9405 ev

!    total energy              =     -65.19842906 Ry

     total all-electron energy =      -656.308391 Ry
     estimated scf accuracy    <          2.0E-15 Ry

     The total energy is the sum of the following terms:
     one-electron contribution =       5.61687347 Ry
     hartree contribution      =       2.37218862 Ry
     xc contribution           =     -10.89002029 Ry
     ewald contribution        =     -20.55886192 Ry
     one-center paw contrib.   =     -41.73860893 Ry

     convergence has been achieved in  13 iterations

     Forces acting on atoms (cartesian axes, Ry/au):

     atom    1 type  1   force =     0.00000000    0.00000000    0.00000000
     atom    2 type  2   force =     0.00000000    0.00000000    0.00000000

     Total force =     0.000000     Total SCF correction =     0.000000


     Computing stress (Cartesian axis) and pressure

          total   stress  (Ry/bohr**3)                   (kbar)     P=      -77.25
  -0.00063371   0.00000000   0.00000000          -93.22        0.00        0.00
   0.00000000  -0.00063371  -0.00000000            0.00      -93.22       -0.00
   0.00000000   0.00000000  -0.00030796            0.00        0.00      -45.30


     BFGS Geometry Optimization
     Energy error            =      0.0E+00 Ry
     Gradient error          =      0.0E+00 Ry/Bohr

     bfgs converged in   1 scf cycles and   0 bfgs steps
     (criteria: energy <  1.0E-05 Ry, force <  1.0E-04 Ry/Bohr)

     End of BFGS Geometry Optimization

     Final energy             =     -65.1984290618 Ry
Begin final coordinates

ATOMIC_POSITIONS (crystal)
Si            0.2500000000        0.2500000000        0.2500000000
C             0.0000000000        0.0000000000        0.0000000000
End final coordinates



     Writing output data file ./tmp/SiC.save/
 
     init_run     :      0.53s CPU      0.66s WALL (       1 calls)
     electrons    :     18.10s CPU     22.10s WALL (       1 calls)
     forces       :      0.07s CPU      0.07s WALL (       1 calls)
     stress       :      0.18s CPU      0.19s WALL (       1 calls)

     Called by init_run:
     wfcinit      :      0.39s CPU      0.48s WALL (       1 calls)
     potinit      :      0.06s CPU      0.07s WALL (       1 calls)
     hinit0       :      0.07s CPU      0.08s WALL (       1 calls)

     Called by electrons:
     c_bands      :     15.70s CPU     19.50s WALL (      13 calls)
     sum_band     :      1.65s CPU      1.81s WALL (      13 calls)
     v_of_rho     :      0.03s CPU      0.03s WALL (      14 calls)
     newd         :      0.08s CPU      0.08s WALL (      14 calls)
     PAW_pot      :      0.67s CPU      0.71s WALL (      14 calls)
     mix_rho      :      0.01s CPU      0.01s WALL (      13 calls)

     Called by c_bands:
     init_us_2    :      0.16s CPU      0.20s WALL (    7076 calls)
     cegterg      :     15.29s CPU     19.04s WALL (    3172 calls)

     Called by *egterg:
     cdiaghg      :      7.30s CPU     10.00s WALL (   10924 calls)
     h_psi        :      5.15s CPU      6.01s WALL (   11168 calls)
     s_psi        :      0.07s CPU      0.09s WALL (   11168 calls)
     g_psi        :      0.01s CPU      0.02s WALL (    7752 calls)

     Called by h_psi:
     h_psi:calbec :      0.21s CPU      0.24s WALL (   11168 calls)
     vloc_psi     :      4.80s CPU      5.59s WALL (   11168 calls)
     add_vuspsi   :      0.10s CPU      0.12s WALL (   11168 calls)

     General routines
     calbec       :      0.27s CPU      0.31s WALL (   15560 calls)
     fft          :      0.03s CPU      0.04s WALL (     205 calls)
     ffts         :      0.00s CPU      0.00s WALL (      27 calls)
     fftw         :      5.45s CPU      6.24s WALL (  161004 calls)
     interpolate  :      0.00s CPU      0.00s WALL (      14 calls)
 
     Parallel routines
 
     PWSCF        :     19.31s CPU     24.40s WALL

 
   This run was terminated on:  17:40:42  21Oct2021            

=------------------------------------------------------------------------------=
   JOB DONE.
=------------------------------------------------------------------------------=
