
     Program PWSCF v.6.8 starts on 21Oct2021 at 17:52:21 

     This program is part of the open-source Quantum ESPRESSO suite
     for quantum simulation of materials; please cite
         "P. Giannozzi et al., J. Phys.:Condens. Matter 21 395502 (2009);
         "P. Giannozzi et al., J. Phys.:Condens. Matter 29 465901 (2017);
         "P. Giannozzi et al., J. Chem. Phys. 152 154105 (2020);
          URL http://www.quantum-espresso.org", 
     in publications or presentations arising from this work. More details at
     http://www.quantum-espresso.org/quote

     Parallel version (MPI), running on    24 processors

     MPI processes distributed on     1 nodes
     R & G space division:  proc/nbgrp/npool/nimage =      24
     60207 MiB available memory on the printing compute node when the environment starts
 
     Reading input from Dst03_11.in

     Current dimensions of program PWSCF are:
     Max number of different atomic species (ntypx) = 10
     Max number of k-points (npk) =  40000
     Max angular momentum in pseudopotentials (lmaxx) =  4
     Message from routine iosys:
     BEWARE:  force calculation with tetrahedra (not recommanded)
     Message from routine iosys:
     BEWARE: stress calculation with tetrahedra (not recommanded)
     file Si.pbe-n-kjpaw_psl.1.0.0.UPF: wavefunction(s)  3S 3P renormalized
     file C.pbe-n-kjpaw_psl.1.0.0.UPF: wavefunction(s)  2S 2P renormalized
     Message from routine setup:
     using ibrav=0 with symmetry is DISCOURAGED, use correct ibrav instead

     Subspace diagonalization in iterative solution of the eigenvalue problem:
     one sub-group per band group will be used
     scalapack distributed-memory algorithm (size of sub-group:  4*  4 procs)

 
     Parallelization info
     --------------------
     sticks:   dense  smooth     PW     G-vecs:    dense   smooth      PW
     Min          48      24      7                 1033      365      65
     Max          49      25      8                 1036      367      68
     Sum        1165     579    185                24811     8779    1605
 
     Using Slab Decomposition
 


     bravais-lattice index     =            0
     lattice parameter (alat)  =       8.2762  a.u.
     unit-cell volume          =     139.7208 (a.u.)^3
     number of atoms/cell      =            2
     number of atomic types    =            2
     number of electrons       =         8.00
     number of Kohn-Sham states=            8
     kinetic-energy cutoff     =      60.0000  Ry
     charge density cutoff     =     480.0000  Ry
     scf convergence threshold =      1.0E-12
     mixing beta               =       0.7000
     number of iterations used =            8  plain     mixing
     energy convergence thresh.=      1.0E-05
     force convergence thresh. =      1.0E-04
     Exchange-correlation= SLA  PW   PBX  PBC
                           (   1   4   3   4   0   0   0)
     nstep                     =           50


     celldm(1)=   8.276169  celldm(2)=   0.000000  celldm(3)=   0.000000
     celldm(4)=   0.000000  celldm(5)=   0.000000  celldm(6)=   0.000000

     crystal axes: (cart. coord. in units of alat)
               a(1) = (  -0.474342   0.000000   0.474342 )  
               a(2) = (   0.048921   0.523262   0.523262 )  
               a(3) = (  -0.474342   0.474342   0.000000 )  

     reciprocal axes: (cart. coord. in units 2 pi/alat)
               b(1) = ( -1.007019 -1.007019  1.101166 )  
               b(2) = (  0.912871  0.912871  0.912871 )  
               b(3) = ( -1.007019  1.101166 -1.007019 )  


     PseudoPot. # 1 for Si read from file:
     /opt/pbe/Si.pbe-n-kjpaw_psl.1.0.0.UPF
     MD5 check sum: c0017aaf58f3391b47f56383898ff6ca
     Pseudo is Projector augmented-wave + core cor, Zval =  4.0
     Generated using 'atomic' code by A. Dal Corso  v.6.7MaX
     Shape of augmentation charge: PSQ
     Using radial grid of 1141 points,  6 beta functions with: 
                l(1) =   0
                l(2) =   0
                l(3) =   1
                l(4) =   1
                l(5) =   2
                l(6) =   2
     Q(r) pseudized with 0 coefficients 


     PseudoPot. # 2 for C  read from file:
     /opt/pbe/C.pbe-n-kjpaw_psl.1.0.0.UPF
     MD5 check sum: 8e1159f88321651dfc8dcabf1d078809
     Pseudo is Projector augmented-wave + core cor, Zval =  4.0
     Generated using 'atomic' code by A. Dal Corso  v.6.7MaX
     Shape of augmentation charge: PSQ
     Using radial grid of 1073 points,  4 beta functions with: 
                l(1) =   0
                l(2) =   0
                l(3) =   1
                l(4) =   1
     Q(r) pseudized with 0 coefficients 


     atomic species   valence    mass     pseudopotential
        Si             4.00    28.08500     Si( 1.00)
        C              4.00    12.01100     C ( 1.00)

      6 Sym. Ops. (no inversion) found



   Cartesian axes

     site n.     atom                  positions (alat units)
         1           Si  tau(   1) = (  -0.2249407   0.2494010   0.2494010  )
         2           C   tau(   2) = (   0.0000000   0.0000000   0.0000000  )

     number of k points=   288 (tetrahedron method)

     Number of k-points >= 100: set verbosity='high' to print them.

     Dense  grid:    24811 G-vectors     FFT dimensions: (  40,  45,  40)

     Smooth grid:     8779 G-vectors     FFT dimensions: (  27,  32,  27)

     Estimated max dynamical RAM per process >       9.00 MB

     Estimated total dynamical RAM >     215.89 MB

     Initial potential from superposition of free atoms

     starting charge    7.99940, renormalised to    8.00000
     Starting wfcs are    8 randomized atomic wfcs
     Checking if some PAW data can be deallocated... 

     total cpu time spent up to now is        1.0 secs

     Self-consistent Calculation

     iteration #  1     ecut=    60.00 Ry     beta= 0.70
     Davidson diagonalization with overlap
     ethr =  1.00E-02,  avg # of iterations =  4.0

     total cpu time spent up to now is        3.6 secs

     total energy              =     -64.99080869 Ry
     estimated scf accuracy    <       0.47307809 Ry

     iteration #  2     ecut=    60.00 Ry     beta= 0.70
     Davidson diagonalization with overlap
     ethr =  5.91E-03,  avg # of iterations =  2.0

     total cpu time spent up to now is        5.5 secs

     total energy              =     -65.12954160 Ry
     estimated scf accuracy    <       0.20631344 Ry

     iteration #  3     ecut=    60.00 Ry     beta= 0.70
     Davidson diagonalization with overlap
     ethr =  2.58E-03,  avg # of iterations =  1.0

     total cpu time spent up to now is        6.8 secs

     total energy              =     -65.16524432 Ry
     estimated scf accuracy    <       0.00202234 Ry

     iteration #  4     ecut=    60.00 Ry     beta= 0.70
     Davidson diagonalization with overlap
     ethr =  2.53E-05,  avg # of iterations =  5.3

     total cpu time spent up to now is       10.0 secs

     total energy              =     -65.16651334 Ry
     estimated scf accuracy    <       0.00051919 Ry

     iteration #  5     ecut=    60.00 Ry     beta= 0.70
     Davidson diagonalization with overlap
     ethr =  6.49E-06,  avg # of iterations =  1.9

     total cpu time spent up to now is       11.7 secs

     total energy              =     -65.16656884 Ry
     estimated scf accuracy    <       0.00002097 Ry

     iteration #  6     ecut=    60.00 Ry     beta= 0.70
     Davidson diagonalization with overlap
     ethr =  2.62E-07,  avg # of iterations =  2.3

     total cpu time spent up to now is       13.6 secs

     total energy              =     -65.16657798 Ry
     estimated scf accuracy    <       0.00000378 Ry

     iteration #  7     ecut=    60.00 Ry     beta= 0.70
     Davidson diagonalization with overlap
     ethr =  4.72E-08,  avg # of iterations =  1.8

     total cpu time spent up to now is       15.2 secs

     total energy              =     -65.16657885 Ry
     estimated scf accuracy    <       0.00000006 Ry

     iteration #  8     ecut=    60.00 Ry     beta= 0.70
     Davidson diagonalization with overlap
     ethr =  7.32E-10,  avg # of iterations =  2.4

     total cpu time spent up to now is       17.1 secs

     total energy              =     -65.16657887 Ry
     estimated scf accuracy    <          5.1E-09 Ry

     iteration #  9     ecut=    60.00 Ry     beta= 0.70
     Davidson diagonalization with overlap
     ethr =  6.39E-11,  avg # of iterations =  2.1

     total cpu time spent up to now is       18.9 secs

     total energy              =     -65.16657887 Ry
     estimated scf accuracy    <          2.7E-11 Ry

     iteration # 10     ecut=    60.00 Ry     beta= 0.70
     Davidson diagonalization with overlap
     ethr =  3.34E-13,  avg # of iterations =  3.9

     total cpu time spent up to now is       21.6 secs

     total energy              =     -65.16657887 Ry
     estimated scf accuracy    <          2.0E-11 Ry

     iteration # 11     ecut=    60.00 Ry     beta= 0.70
     Davidson diagonalization with overlap
     ethr =  2.54E-13,  avg # of iterations =  1.7

     total cpu time spent up to now is       23.1 secs

     End of self-consistent calculation

     Number of k-points >= 100: set verbosity='high' to print the bands.

     the Fermi energy is    10.2984 ev

!    total energy              =     -65.16657887 Ry

     total all-electron energy =      -656.276541 Ry
     estimated scf accuracy    <          2.4E-14 Ry

     The total energy is the sum of the following terms:
     one-electron contribution =       5.96402902 Ry
     hartree contribution      =       2.41824007 Ry
     xc contribution           =     -10.98498609 Ry
     ewald contribution        =     -20.81654408 Ry
     one-center paw contrib.   =     -41.74731780 Ry

     convergence has been achieved in  11 iterations

     Forces acting on atoms (cartesian axes, Ry/au):

     atom    1 type  1   force =     0.01184120    0.01184120    0.01184120
     atom    2 type  2   force =    -0.01184120   -0.01184120   -0.01184120

     Total force =     0.029005     Total SCF correction =     0.000000


     Computing stress (Cartesian axis) and pressure

          total   stress  (Ry/bohr**3)                   (kbar)     P=       90.04
   0.00061211  -0.00160650  -0.00160650           90.04     -236.32     -236.32
  -0.00160650   0.00061211  -0.00160650         -236.32       90.04     -236.32
  -0.00160650  -0.00160650   0.00061211         -236.32     -236.32       90.04


     BFGS Geometry Optimization
     Energy error            =      0.0E+00 Ry
     Gradient error          =      1.2E-02 Ry/Bohr

     number of scf cycles    =   1
     number of bfgs steps    =   0

     energy             new  =     -65.1665788728 Ry

     new trust radius        =       0.0205095563 bohr
     new conv_thr            =            1.0E-12 Ry


ATOMIC_POSITIONS (crystal)
Si            0.2486939023        0.2539182931        0.2486939023
C             0.0013060977       -0.0039182931        0.0013060977



     Writing output data file ./tmp/SiC.save/
     NEW-OLD atomic charge density approx. for the potential

     total cpu time spent up to now is       23.7 secs

     Self-consistent Calculation

     iteration #  1     ecut=    60.00 Ry     beta= 0.70
     Davidson diagonalization with overlap
     ethr =  1.00E-06,  avg # of iterations =  5.5

     total cpu time spent up to now is       27.0 secs

     total energy              =     -65.16718819 Ry
     estimated scf accuracy    <       0.00009884 Ry

     iteration #  2     ecut=    60.00 Ry     beta= 0.70
     Davidson diagonalization with overlap
     ethr =  1.24E-06,  avg # of iterations =  2.0

     total cpu time spent up to now is       28.8 secs

     total energy              =     -65.16720666 Ry
     estimated scf accuracy    <       0.00000390 Ry

     iteration #  3     ecut=    60.00 Ry     beta= 0.70
     Davidson diagonalization with overlap
     ethr =  4.87E-08,  avg # of iterations =  1.8

     total cpu time spent up to now is       30.4 secs

     total energy              =     -65.16720741 Ry
     estimated scf accuracy    <       0.00000039 Ry

     iteration #  4     ecut=    60.00 Ry     beta= 0.70
     Davidson diagonalization with overlap
     ethr =  4.83E-09,  avg # of iterations =  1.8

     total cpu time spent up to now is       32.0 secs

     total energy              =     -65.16720750 Ry
     estimated scf accuracy    <       0.00000004 Ry

     iteration #  5     ecut=    60.00 Ry     beta= 0.70
     Davidson diagonalization with overlap
     ethr =  4.82E-10,  avg # of iterations =  1.8

     total cpu time spent up to now is       33.5 secs

     total energy              =     -65.16720751 Ry
     estimated scf accuracy    <          2.2E-10 Ry

     iteration #  6     ecut=    60.00 Ry     beta= 0.70
     Davidson diagonalization with overlap
     ethr =  2.80E-12,  avg # of iterations =  4.0

     total cpu time spent up to now is       36.1 secs

     total energy              =     -65.16720751 Ry
     estimated scf accuracy    <          3.6E-11 Ry

     iteration #  7     ecut=    60.00 Ry     beta= 0.70
     Davidson diagonalization with overlap
     ethr =  4.46E-13,  avg # of iterations =  2.0

     total cpu time spent up to now is       37.8 secs

     total energy              =     -65.16720751 Ry
     estimated scf accuracy    <          1.7E-12 Ry

     iteration #  8     ecut=    60.00 Ry     beta= 0.70
     Davidson diagonalization with overlap
     ethr =  1.00E-13,  avg # of iterations =  1.0

     total cpu time spent up to now is       39.1 secs

     End of self-consistent calculation

     Number of k-points >= 100: set verbosity='high' to print the bands.

     the Fermi energy is    10.2864 ev

!    total energy              =     -65.16720751 Ry

     total all-electron energy =      -656.277170 Ry
     estimated scf accuracy    <          5.1E-14 Ry

     The total energy is the sum of the following terms:
     one-electron contribution =       6.00881342 Ry
     hartree contribution      =       2.39789160 Ry
     xc contribution           =     -10.97937341 Ry
     ewald contribution        =     -20.84806476 Ry
     one-center paw contrib.   =     -41.74647436 Ry

     convergence has been achieved in   8 iterations

     Forces acting on atoms (cartesian axes, Ry/au):

     atom    1 type  1   force =     0.00577563    0.00577563    0.00577563
     atom    2 type  2   force =    -0.00577563   -0.00577563   -0.00577563

     Total force =     0.014147     Total SCF correction =     0.000000


     Computing stress (Cartesian axis) and pressure

          total   stress  (Ry/bohr**3)                   (kbar)     P=       78.09
   0.00053084  -0.00161067  -0.00161067           78.09     -236.94     -236.94
  -0.00161067   0.00053084  -0.00161067         -236.94       78.09     -236.94
  -0.00161067  -0.00161067   0.00053084         -236.94     -236.94       78.09

     Energy error            =      6.3E-04 Ry
     Gradient error          =      5.8E-03 Ry/Bohr

     number of scf cycles    =   2
     number of bfgs steps    =   1

     energy             old  =     -65.1665788728 Ry
     energy             new  =     -65.1672075103 Ry

     CASE: energy            _new < energy            _old

     new trust radius        =       0.0195291877 bohr
     new conv_thr            =            5.8E-13 Ry


ATOMIC_POSITIONS (crystal)
Si            0.2474502368        0.2576492895        0.2474502368
C             0.0025497632       -0.0076492895        0.0025497632



     Writing output data file ./tmp/SiC.save/
     NEW-OLD atomic charge density approx. for the potential

     total cpu time spent up to now is       39.7 secs

     Self-consistent Calculation

     iteration #  1     ecut=    60.00 Ry     beta= 0.70
     Davidson diagonalization with overlap
     ethr =  1.00E-06,  avg # of iterations =  5.3

     total cpu time spent up to now is       42.9 secs

     total energy              =     -65.16737246 Ry
     estimated scf accuracy    <       0.00009147 Ry

     iteration #  2     ecut=    60.00 Ry     beta= 0.70
     Davidson diagonalization with overlap
     ethr =  1.14E-06,  avg # of iterations =  2.0

     total cpu time spent up to now is       44.7 secs

     total energy              =     -65.16738955 Ry
     estimated scf accuracy    <       0.00000314 Ry

     iteration #  3     ecut=    60.00 Ry     beta= 0.70
     Davidson diagonalization with overlap
     ethr =  3.93E-08,  avg # of iterations =  1.7

     total cpu time spent up to now is       46.2 secs

     total energy              =     -65.16739013 Ry
     estimated scf accuracy    <       0.00000029 Ry

     iteration #  4     ecut=    60.00 Ry     beta= 0.70
     Davidson diagonalization with overlap
     ethr =  3.65E-09,  avg # of iterations =  1.9

     total cpu time spent up to now is       47.9 secs

     total energy              =     -65.16739020 Ry
     estimated scf accuracy    <       0.00000004 Ry

     iteration #  5     ecut=    60.00 Ry     beta= 0.70
     Davidson diagonalization with overlap
     ethr =  4.48E-10,  avg # of iterations =  1.7

     total cpu time spent up to now is       49.4 secs

     total energy              =     -65.16739021 Ry
     estimated scf accuracy    <          2.0E-10 Ry

     iteration #  6     ecut=    60.00 Ry     beta= 0.70
     Davidson diagonalization with overlap
     ethr =  2.55E-12,  avg # of iterations =  4.0

     total cpu time spent up to now is       52.0 secs

     total energy              =     -65.16739021 Ry
     estimated scf accuracy    <          3.2E-11 Ry

     iteration #  7     ecut=    60.00 Ry     beta= 0.70
     Davidson diagonalization with overlap
     ethr =  4.05E-13,  avg # of iterations =  2.0

     total cpu time spent up to now is       53.7 secs

     total energy              =     -65.16739021 Ry
     estimated scf accuracy    <          1.6E-12 Ry

     iteration #  8     ecut=    60.00 Ry     beta= 0.70
     Davidson diagonalization with overlap
     ethr =  1.00E-13,  avg # of iterations =  1.0

     total cpu time spent up to now is       55.0 secs

     End of self-consistent calculation

     Number of k-points >= 100: set verbosity='high' to print the bands.

     the Fermi energy is    10.2763 ev

!    total energy              =     -65.16739021 Ry

     total all-electron energy =      -656.277352 Ry
     estimated scf accuracy    <          4.8E-14 Ry

     The total energy is the sum of the following terms:
     one-electron contribution =       6.05049882 Ry
     hartree contribution      =       2.37895378 Ry
     xc contribution           =     -10.97417616 Ry
     ewald contribution        =     -20.87696265 Ry
     one-center paw contrib.   =     -41.74570400 Ry

     convergence has been achieved in   8 iterations

     Forces acting on atoms (cartesian axes, Ry/au):

     atom    1 type  1   force =    -0.00044565   -0.00044565   -0.00044565
     atom    2 type  2   force =     0.00044565    0.00044565    0.00044565

     Total force =     0.001092     Total SCF correction =     0.000000


     Computing stress (Cartesian axis) and pressure

          total   stress  (Ry/bohr**3)                   (kbar)     P=       67.38
   0.00045801  -0.00161302  -0.00161302           67.38     -237.28     -237.28
  -0.00161302   0.00045801  -0.00161302         -237.28       67.38     -237.28
  -0.00161302  -0.00161302   0.00045801         -237.28     -237.28       67.38

     Energy error            =      1.8E-04 Ry
     Gradient error          =      4.5E-04 Ry/Bohr

     number of scf cycles    =   3
     number of bfgs steps    =   2

     energy             old  =     -65.1672075103 Ry
     energy             new  =     -65.1673902096 Ry

     CASE: energy            _new < energy            _old

     new trust radius        =       0.0013989513 bohr
     new conv_thr            =            4.5E-14 Ry


ATOMIC_POSITIONS (crystal)
Si            0.2475393254        0.2573820238        0.2475393254
C             0.0024606746       -0.0073820238        0.0024606746



     Writing output data file ./tmp/SiC.save/
     NEW-OLD atomic charge density approx. for the potential

     total cpu time spent up to now is       55.5 secs

     Self-consistent Calculation

     iteration #  1     ecut=    60.00 Ry     beta= 0.70
     Davidson diagonalization with overlap
     ethr =  1.00E-06,  avg # of iterations =  2.0

     Threshold (ethr) on eigenvalues was too large:
     Diagonalizing with lowered threshold

     Davidson diagonalization with overlap
     ethr =  5.39E-09,  avg # of iterations =  2.0

     total cpu time spent up to now is       58.6 secs

     total energy              =     -65.16739117 Ry
     estimated scf accuracy    <       0.00000047 Ry

     iteration #  2     ecut=    60.00 Ry     beta= 0.70
     Davidson diagonalization with overlap
     ethr =  5.88E-09,  avg # of iterations =  2.0

     total cpu time spent up to now is       60.3 secs

     total energy              =     -65.16739125 Ry
     estimated scf accuracy    <       0.00000002 Ry

     iteration #  3     ecut=    60.00 Ry     beta= 0.70
     Davidson diagonalization with overlap
     ethr =  1.91E-10,  avg # of iterations =  1.9

     total cpu time spent up to now is       62.0 secs

     total energy              =     -65.16739126 Ry
     estimated scf accuracy    <          1.5E-09 Ry

     iteration #  4     ecut=    60.00 Ry     beta= 0.70
     Davidson diagonalization with overlap
     ethr =  1.85E-11,  avg # of iterations =  1.9

     total cpu time spent up to now is       63.6 secs

     total energy              =     -65.16739126 Ry
     estimated scf accuracy    <          1.8E-10 Ry

     iteration #  5     ecut=    60.00 Ry     beta= 0.70
     Davidson diagonalization with overlap
     ethr =  2.27E-12,  avg # of iterations =  1.8

     total cpu time spent up to now is       65.1 secs

     total energy              =     -65.16739126 Ry
     estimated scf accuracy    <          1.1E-12 Ry

     iteration #  6     ecut=    60.00 Ry     beta= 0.70
     Davidson diagonalization with overlap
     ethr =  1.00E-13,  avg # of iterations =  2.8

     total cpu time spent up to now is       67.2 secs

     total energy              =     -65.16739126 Ry
     estimated scf accuracy    <          1.7E-13 Ry

     iteration #  7     ecut=    60.00 Ry     beta= 0.70
     Davidson diagonalization with overlap
     ethr =  1.00E-13,  avg # of iterations =  1.0

     total cpu time spent up to now is       68.4 secs

     End of self-consistent calculation

     Number of k-points >= 100: set verbosity='high' to print the bands.

     the Fermi energy is    10.2770 ev

!    total energy              =     -65.16739126 Ry

     total all-electron energy =      -656.277353 Ry
     estimated scf accuracy    <          2.7E-15 Ry

     The total energy is the sum of the following terms:
     one-electron contribution =       6.04754744 Ry
     hartree contribution      =       2.38029446 Ry
     xc contribution           =     -10.97454316 Ry
     ewald contribution        =     -20.87493195 Ry
     one-center paw contrib.   =     -41.74575805 Ry

     convergence has been achieved in   7 iterations

     Forces acting on atoms (cartesian axes, Ry/au):

     atom    1 type  1   force =     0.00001440    0.00001440    0.00001440
     atom    2 type  2   force =    -0.00001440   -0.00001440   -0.00001440

     Total force =     0.000035     Total SCF correction =     0.000000


     Computing stress (Cartesian axis) and pressure

          total   stress  (Ry/bohr**3)                   (kbar)     P=       68.12
   0.00046306  -0.00161291  -0.00161291           68.12     -237.27     -237.27
  -0.00161291   0.00046306  -0.00161291         -237.27       68.12     -237.27
  -0.00161291  -0.00161291   0.00046306         -237.27     -237.27       68.12

     Energy error            =      1.0E-06 Ry
     Gradient error          =      1.4E-05 Ry/Bohr

     bfgs converged in   4 scf cycles and   3 bfgs steps
     (criteria: energy <  1.0E-05 Ry, force <  1.0E-04 Ry/Bohr)

     End of BFGS Geometry Optimization

     Final energy             =     -65.1673912559 Ry

     File ./tmp/SiC.bfgs deleted, as requested
Begin final coordinates

ATOMIC_POSITIONS (crystal)
Si            0.2475393254        0.2573820238        0.2475393254
C             0.0024606746       -0.0073820238        0.0024606746
End final coordinates



     Writing output data file ./tmp/SiC.save/
 
     init_run     :      0.57s CPU      0.74s WALL (       1 calls)
     electrons    :     53.58s CPU     65.87s WALL (       4 calls)
     update_pot   :      0.27s CPU      0.30s WALL (       3 calls)
     forces       :      0.32s CPU      0.33s WALL (       4 calls)
     stress       :      0.78s CPU      0.78s WALL (       4 calls)

     Called by init_run:
     wfcinit      :      0.42s CPU      0.55s WALL (       1 calls)
     potinit      :      0.07s CPU      0.09s WALL (       1 calls)
     hinit0       :      0.07s CPU      0.08s WALL (       1 calls)

     Called by electrons:
     c_bands      :     46.91s CPU     58.56s WALL (      35 calls)
     sum_band     :      4.74s CPU      5.27s WALL (      35 calls)
     v_of_rho     :      0.07s CPU      0.08s WALL (      38 calls)
     newd         :      0.20s CPU      0.20s WALL (      38 calls)
     PAW_pot      :      1.97s CPU      2.04s WALL (      41 calls)
     mix_rho      :      0.01s CPU      0.01s WALL (      35 calls)

     Called by c_bands:
     init_us_2    :      0.50s CPU      0.61s WALL (   23616 calls)
     cegterg      :     45.70s CPU     57.17s WALL (   10080 calls)

     Called by *egterg:
     cdiaghg      :     21.68s CPU     29.71s WALL (   32900 calls)
     h_psi        :     14.50s CPU     17.17s WALL (   34340 calls)
     s_psi        :      0.25s CPU      0.27s WALL (   34340 calls)
     g_psi        :      0.04s CPU      0.07s WALL (   23972 calls)

     Called by h_psi:
     h_psi:calbec :      0.59s CPU      0.73s WALL (   34340 calls)
     vloc_psi     :     13.47s CPU     15.90s WALL (   34340 calls)
     add_vuspsi   :      0.28s CPU      0.34s WALL (   34340 calls)

     General routines
     calbec       :      0.81s CPU      0.99s WALL (   51044 calls)
     fft          :      0.09s CPU      0.13s WALL (     590 calls)
     ffts         :      0.01s CPU      0.01s WALL (      73 calls)
     fftw         :     15.25s CPU     17.87s WALL (  490750 calls)
     interpolate  :      0.01s CPU      0.01s WALL (      38 calls)
 
     Parallel routines
 
     PWSCF        :     56.36s CPU   1m10.00s WALL

 
   This run was terminated on:  17:53:31  21Oct2021            

=------------------------------------------------------------------------------=
   JOB DONE.
=------------------------------------------------------------------------------=
