
     Program PWSCF v.6.8 starts on 21Oct2021 at 17:41:57 

     This program is part of the open-source Quantum ESPRESSO suite
     for quantum simulation of materials; please cite
         "P. Giannozzi et al., J. Phys.:Condens. Matter 21 395502 (2009);
         "P. Giannozzi et al., J. Phys.:Condens. Matter 29 465901 (2017);
         "P. Giannozzi et al., J. Chem. Phys. 152 154105 (2020);
          URL http://www.quantum-espresso.org", 
     in publications or presentations arising from this work. More details at
     http://www.quantum-espresso.org/quote

     Parallel version (MPI), running on    24 processors

     MPI processes distributed on     1 nodes
     R & G space division:  proc/nbgrp/npool/nimage =      24
     58895 MiB available memory on the printing compute node when the environment starts
 
     Reading input from Dst01_06.in

     Current dimensions of program PWSCF are:
     Max number of different atomic species (ntypx) = 10
     Max number of k-points (npk) =  40000
     Max angular momentum in pseudopotentials (lmaxx) =  4
     Message from routine iosys:
     BEWARE:  force calculation with tetrahedra (not recommanded)
     Message from routine iosys:
     BEWARE: stress calculation with tetrahedra (not recommanded)
     file Si.pbe-n-kjpaw_psl.1.0.0.UPF: wavefunction(s)  3S 3P renormalized
     file C.pbe-n-kjpaw_psl.1.0.0.UPF: wavefunction(s)  2S 2P renormalized

     Subspace diagonalization in iterative solution of the eigenvalue problem:
     one sub-group per band group will be used
     scalapack distributed-memory algorithm (size of sub-group:  4*  4 procs)

 
     Parallelization info
     --------------------
     sticks:   dense  smooth     PW     G-vecs:    dense   smooth      PW
     Min          47      23      7                 1046      368      69
     Max          48      24      8                 1048      372      72
     Sum        1135     571    187                25125     8873    1687
 
     Using Slab Decomposition
 


     bravais-lattice index     =            0
     lattice parameter (alat)  =       8.2762  a.u.
     unit-cell volume          =     141.7275 (a.u.)^3
     number of atoms/cell      =            2
     number of atomic types    =            2
     number of electrons       =         8.00
     number of Kohn-Sham states=            8
     kinetic-energy cutoff     =      60.0000  Ry
     charge density cutoff     =     480.0000  Ry
     scf convergence threshold =      1.0E-12
     mixing beta               =       0.7000
     number of iterations used =            8  plain     mixing
     energy convergence thresh.=      1.0E-05
     force convergence thresh. =      1.0E-04
     Exchange-correlation= SLA  PW   PBX  PBC
                           (   1   4   3   4   0   0   0)
     nstep                     =           50


     celldm(1)=   8.276169  celldm(2)=   0.000000  celldm(3)=   0.000000
     celldm(4)=   0.000000  celldm(5)=   0.000000  celldm(6)=   0.000000

     crystal axes: (cart. coord. in units of alat)
               a(1) = (  -0.499993  -0.000005   0.500002 )  
               a(2) = (   0.000027   0.500020   0.500025 )  
               a(3) = (  -0.499990   0.499995  -0.000003 )  

     reciprocal axes: (cart. coord. in units 2 pi/alat)
               b(1) = ( -0.999985 -0.999970  1.000015 )  
               b(2) = (  0.999935  0.999930  0.999925 )  
               b(3) = ( -0.999995  1.000030 -0.999965 )  


     PseudoPot. # 1 for Si read from file:
     /opt/pbe/Si.pbe-n-kjpaw_psl.1.0.0.UPF
     MD5 check sum: c0017aaf58f3391b47f56383898ff6ca
     Pseudo is Projector augmented-wave + core cor, Zval =  4.0
     Generated using 'atomic' code by A. Dal Corso  v.6.7MaX
     Shape of augmentation charge: PSQ
     Using radial grid of 1141 points,  6 beta functions with: 
                l(1) =   0
                l(2) =   0
                l(3) =   1
                l(4) =   1
                l(5) =   2
                l(6) =   2
     Q(r) pseudized with 0 coefficients 


     PseudoPot. # 2 for C  read from file:
     /opt/pbe/C.pbe-n-kjpaw_psl.1.0.0.UPF
     MD5 check sum: 8e1159f88321651dfc8dcabf1d078809
     Pseudo is Projector augmented-wave + core cor, Zval =  4.0
     Generated using 'atomic' code by A. Dal Corso  v.6.7MaX
     Shape of augmentation charge: PSQ
     Using radial grid of 1073 points,  4 beta functions with: 
                l(1) =   0
                l(2) =   0
                l(3) =   1
                l(4) =   1
     Q(r) pseudized with 0 coefficients 


     atomic species   valence    mass     pseudopotential
        Si             4.00    28.08500     Si( 1.00)
        C              4.00    12.01100     C ( 1.00)

     No symmetry found



   Cartesian axes

     site n.     atom                  positions (alat units)
         1           Si  tau(   1) = (  -0.2499888   0.2500025   0.2500062  )
         2           C   tau(   2) = (   0.0000000   0.0000000   0.0000000  )

     number of k points=  1376 (tetrahedron method)

     Number of k-points >= 100: set verbosity='high' to print them.

     Dense  grid:    25125 G-vectors     FFT dimensions: (  45,  45,  45)

     Smooth grid:     8873 G-vectors     FFT dimensions: (  30,  30,  30)

     Estimated max dynamical RAM per process >      15.21 MB

     Estimated total dynamical RAM >     365.12 MB

     Initial potential from superposition of free atoms

     starting charge    7.99940, renormalised to    8.00000
     Starting wfcs are    8 randomized atomic wfcs
     Checking if some PAW data can be deallocated... 

     total cpu time spent up to now is        2.9 secs

     Self-consistent Calculation

     iteration #  1     ecut=    60.00 Ry     beta= 0.70
     Davidson diagonalization with overlap
     ethr =  1.00E-02,  avg # of iterations =  3.8

     total cpu time spent up to now is       14.6 secs

     total energy              =     -65.03945815 Ry
     estimated scf accuracy    <       0.43393894 Ry

     iteration #  2     ecut=    60.00 Ry     beta= 0.70
     Davidson diagonalization with overlap
     ethr =  5.42E-03,  avg # of iterations =  2.0

     total cpu time spent up to now is       22.9 secs

     total energy              =     -65.16853744 Ry
     estimated scf accuracy    <       0.18177072 Ry

     iteration #  3     ecut=    60.00 Ry     beta= 0.70
     Davidson diagonalization with overlap
     ethr =  2.27E-03,  avg # of iterations =  1.0

     total cpu time spent up to now is       28.8 secs

     total energy              =     -65.19893851 Ry
     estimated scf accuracy    <       0.00198664 Ry

     iteration #  4     ecut=    60.00 Ry     beta= 0.70
     Davidson diagonalization with overlap
     ethr =  2.48E-05,  avg # of iterations =  4.8

     total cpu time spent up to now is       43.3 secs

     total energy              =     -65.20006488 Ry
     estimated scf accuracy    <       0.00093294 Ry

     iteration #  5     ecut=    60.00 Ry     beta= 0.70
     Davidson diagonalization with overlap
     ethr =  1.17E-05,  avg # of iterations =  1.8

     total cpu time spent up to now is       50.6 secs

     total energy              =     -65.20022855 Ry
     estimated scf accuracy    <       0.00000239 Ry

     iteration #  6     ecut=    60.00 Ry     beta= 0.70
     Davidson diagonalization with overlap
     ethr =  2.99E-08,  avg # of iterations =  4.5

     total cpu time spent up to now is       64.5 secs

     total energy              =     -65.20023455 Ry
     estimated scf accuracy    <       0.00000645 Ry

     iteration #  7     ecut=    60.00 Ry     beta= 0.70
     Davidson diagonalization with overlap
     ethr =  2.99E-08,  avg # of iterations =  2.0

     total cpu time spent up to now is       72.7 secs

     total energy              =     -65.20023543 Ry
     estimated scf accuracy    <       0.00000012 Ry

     iteration #  8     ecut=    60.00 Ry     beta= 0.70
     Davidson diagonalization with overlap
     ethr =  1.47E-09,  avg # of iterations =  2.2

     total cpu time spent up to now is       81.4 secs

     total energy              =     -65.20023547 Ry
     estimated scf accuracy    <          4.1E-10 Ry

     iteration #  9     ecut=    60.00 Ry     beta= 0.70
     Davidson diagonalization with overlap
     ethr =  5.16E-12,  avg # of iterations =  4.1

     total cpu time spent up to now is       94.3 secs

     total energy              =     -65.20023547 Ry
     estimated scf accuracy    <          1.9E-10 Ry

     iteration # 10     ecut=    60.00 Ry     beta= 0.70
     Davidson diagonalization with overlap
     ethr =  2.34E-12,  avg # of iterations =  2.0

     total cpu time spent up to now is      102.6 secs

     total energy              =     -65.20023547 Ry
     estimated scf accuracy    <          1.1E-10 Ry

     iteration # 11     ecut=    60.00 Ry     beta= 0.70
     Davidson diagonalization with overlap
     ethr =  1.32E-12,  avg # of iterations =  1.0

     total cpu time spent up to now is      108.4 secs

     total energy              =     -65.20023547 Ry
     estimated scf accuracy    <          3.2E-12 Ry

     iteration # 12     ecut=    60.00 Ry     beta= 0.70
     Davidson diagonalization with overlap
     ethr =  1.00E-13,  avg # of iterations =  1.7

     total cpu time spent up to now is      115.7 secs

     End of self-consistent calculation

     Number of k-points >= 100: set verbosity='high' to print the bands.

     the Fermi energy is    10.3901 ev

!    total energy              =     -65.20023547 Ry

     total all-electron energy =      -656.310198 Ry
     estimated scf accuracy    <          2.3E-13 Ry

     The total energy is the sum of the following terms:
     one-electron contribution =       5.97657633 Ry
     hartree contribution      =       2.34347494 Ry
     xc contribution           =     -10.95024596 Ry
     ewald contribution        =     -20.82776345 Ry
     one-center paw contrib.   =     -41.74227733 Ry

     convergence has been achieved in  12 iterations

     Forces acting on atoms (cartesian axes, Ry/au):

     atom    1 type  1   force =     0.00001185    0.00001482    0.00001778
     atom    2 type  2   force =    -0.00001185   -0.00001482   -0.00001778

     Total force =     0.000037     Total SCF correction =     0.000000


     Computing stress (Cartesian axis) and pressure

          total   stress  (Ry/bohr**3)                   (kbar)     P=        0.33
   0.00000239  -0.00000107  -0.00000090            0.35       -0.16       -0.13
  -0.00000107   0.00000222  -0.00000072           -0.16        0.33       -0.11
  -0.00000090  -0.00000072   0.00000204           -0.13       -0.11        0.30


     BFGS Geometry Optimization
     Energy error            =      0.0E+00 Ry
     Gradient error          =      1.8E-05 Ry/Bohr

     bfgs converged in   1 scf cycles and   0 bfgs steps
     (criteria: energy <  1.0E-05 Ry, force <  1.0E-04 Ry/Bohr)

     End of BFGS Geometry Optimization

     Final energy             =     -65.2002354743 Ry
Begin final coordinates

ATOMIC_POSITIONS (crystal)
Si            0.2500000000        0.2500000000        0.2500000000
C             0.0000000000        0.0000000000        0.0000000000
End final coordinates



     Writing output data file ./tmp/SiC.save/
 
     init_run     :      2.13s CPU      2.59s WALL (       1 calls)
     electrons    :     91.90s CPU    112.85s WALL (       1 calls)
     forces       :      0.23s CPU      0.24s WALL (       1 calls)
     stress       :      0.71s CPU      0.73s WALL (       1 calls)

     Called by init_run:
     wfcinit      :      1.97s CPU      2.41s WALL (       1 calls)
     potinit      :      0.07s CPU      0.08s WALL (       1 calls)
     hinit0       :      0.07s CPU      0.08s WALL (       1 calls)

     Called by electrons:
     c_bands      :     85.24s CPU    105.24s WALL (      12 calls)
     sum_band     :      5.97s CPU      6.88s WALL (      12 calls)
     v_of_rho     :      0.03s CPU      0.03s WALL (      13 calls)
     newd         :      0.08s CPU      0.08s WALL (      13 calls)
     PAW_pot      :      0.63s CPU      0.66s WALL (      13 calls)
     mix_rho      :      0.01s CPU      0.01s WALL (      12 calls)

     Called by c_bands:
     init_us_2    :      0.77s CPU      0.96s WALL (   37152 calls)
     cegterg      :     83.21s CPU    102.96s WALL (   16512 calls)

     Called by *egterg:
     cdiaghg      :     39.94s CPU     54.18s WALL (   59212 calls)
     h_psi        :     27.44s CPU     31.83s WALL (   60588 calls)
     s_psi        :      0.37s CPU      0.49s WALL (   60588 calls)
     g_psi        :      0.06s CPU      0.12s WALL (   42700 calls)

     Called by h_psi:
     h_psi:calbec :      1.01s CPU      1.21s WALL (   60588 calls)
     vloc_psi     :     25.66s CPU     29.67s WALL (   60588 calls)
     add_vuspsi   :      0.52s CPU      0.60s WALL (   60588 calls)

     General routines
     calbec       :      1.30s CPU      1.54s WALL (   83980 calls)
     fft          :      0.02s CPU      0.03s WALL (     192 calls)
     ffts         :      0.00s CPU      0.00s WALL (      25 calls)
     fftw         :     28.83s CPU     33.01s WALL (  857630 calls)
     interpolate  :      0.00s CPU      0.00s WALL (      13 calls)
 
     Parallel routines
 
     PWSCF        :   1m36.17s CPU   2m 2.67s WALL

 
   This run was terminated on:  17:44: 0  21Oct2021            

=------------------------------------------------------------------------------=
   JOB DONE.
=------------------------------------------------------------------------------=
