
     Program PWSCF v.6.8 starts on 21Oct2021 at 17:41:59 

     This program is part of the open-source Quantum ESPRESSO suite
     for quantum simulation of materials; please cite
         "P. Giannozzi et al., J. Phys.:Condens. Matter 21 395502 (2009);
         "P. Giannozzi et al., J. Phys.:Condens. Matter 29 465901 (2017);
         "P. Giannozzi et al., J. Chem. Phys. 152 154105 (2020);
          URL http://www.quantum-espresso.org", 
     in publications or presentations arising from this work. More details at
     http://www.quantum-espresso.org/quote

     Parallel version (MPI), running on    24 processors

     MPI processes distributed on     1 nodes
     R & G space division:  proc/nbgrp/npool/nimage =      24
     60210 MiB available memory on the printing compute node when the environment starts
 
     Reading input from Dst03_01.in

     Current dimensions of program PWSCF are:
     Max number of different atomic species (ntypx) = 10
     Max number of k-points (npk) =  40000
     Max angular momentum in pseudopotentials (lmaxx) =  4
     Message from routine iosys:
     BEWARE:  force calculation with tetrahedra (not recommanded)
     Message from routine iosys:
     BEWARE: stress calculation with tetrahedra (not recommanded)
     file Si.pbe-n-kjpaw_psl.1.0.0.UPF: wavefunction(s)  3S 3P renormalized
     file C.pbe-n-kjpaw_psl.1.0.0.UPF: wavefunction(s)  2S 2P renormalized
     Message from routine setup:
     using ibrav=0 with symmetry is DISCOURAGED, use correct ibrav instead

     Subspace diagonalization in iterative solution of the eigenvalue problem:
     one sub-group per band group will be used
     scalapack distributed-memory algorithm (size of sub-group:  4*  4 procs)

 
     Parallelization info
     --------------------
     sticks:   dense  smooth     PW     G-vecs:    dense   smooth      PW
     Min          45      22      7                 1030      364      66
     Max          46      23      8                 1034      368      69
     Sum        1085     545    173                24749     8775    1615
 
     Using Slab Decomposition
 


     bravais-lattice index     =            0
     lattice parameter (alat)  =       8.2762  a.u.
     unit-cell volume          =     139.4331 (a.u.)^3
     number of atoms/cell      =            2
     number of atomic types    =            2
     number of electrons       =         8.00
     number of Kohn-Sham states=            8
     kinetic-energy cutoff     =      60.0000  Ry
     charge density cutoff     =     480.0000  Ry
     scf convergence threshold =      1.0E-12
     mixing beta               =       0.7000
     number of iterations used =            8  plain     mixing
     energy convergence thresh.=      1.0E-05
     force convergence thresh. =      1.0E-04
     Exchange-correlation= SLA  PW   PBX  PBC
                           (   1   4   3   4   0   0   0)
     nstep                     =           50


     celldm(1)=   8.276169  celldm(2)=   0.000000  celldm(3)=   0.000000
     celldm(4)=   0.000000  celldm(5)=   0.000000  celldm(6)=   0.000000

     crystal axes: (cart. coord. in units of alat)
               a(1) = (  -0.524404   0.000000   0.524404 )  
               a(2) = (  -0.051461   0.472944   0.472944 )  
               a(3) = (  -0.524404   0.524404   0.000000 )  

     reciprocal axes: (cart. coord. in units 2 pi/alat)
               b(1) = ( -1.008320 -1.008320  0.898605 )  
               b(2) = (  1.118034  1.118034  1.118034 )  
               b(3) = ( -1.008320  0.898605 -1.008320 )  


     PseudoPot. # 1 for Si read from file:
     /opt/pbe/Si.pbe-n-kjpaw_psl.1.0.0.UPF
     MD5 check sum: c0017aaf58f3391b47f56383898ff6ca
     Pseudo is Projector augmented-wave + core cor, Zval =  4.0
     Generated using 'atomic' code by A. Dal Corso  v.6.7MaX
     Shape of augmentation charge: PSQ
     Using radial grid of 1141 points,  6 beta functions with: 
                l(1) =   0
                l(2) =   0
                l(3) =   1
                l(4) =   1
                l(5) =   2
                l(6) =   2
     Q(r) pseudized with 0 coefficients 


     PseudoPot. # 2 for C  read from file:
     /opt/pbe/C.pbe-n-kjpaw_psl.1.0.0.UPF
     MD5 check sum: 8e1159f88321651dfc8dcabf1d078809
     Pseudo is Projector augmented-wave + core cor, Zval =  4.0
     Generated using 'atomic' code by A. Dal Corso  v.6.7MaX
     Shape of augmentation charge: PSQ
     Using radial grid of 1073 points,  4 beta functions with: 
                l(1) =   0
                l(2) =   0
                l(3) =   1
                l(4) =   1
     Q(r) pseudized with 0 coefficients 


     atomic species   valence    mass     pseudopotential
        Si             4.00    28.08500     Si( 1.00)
        C              4.00    12.01100     C ( 1.00)

      6 Sym. Ops. (no inversion) found



   Cartesian axes

     site n.     atom                  positions (alat units)
         1           Si  tau(   1) = (  -0.2750674   0.2493371   0.2493371  )
         2           C   tau(   2) = (   0.0000000   0.0000000   0.0000000  )

     number of k points=   288 (tetrahedron method)

     Number of k-points >= 100: set verbosity='high' to print them.

     Dense  grid:    24749 G-vectors     FFT dimensions: (  45,  40,  45)

     Smooth grid:     8775 G-vectors     FFT dimensions: (  32,  27,  32)

     Estimated max dynamical RAM per process >       9.00 MB

     Estimated total dynamical RAM >     215.89 MB

     Initial potential from superposition of free atoms

     starting charge    7.99940, renormalised to    8.00000
     Starting wfcs are    8 randomized atomic wfcs
     Checking if some PAW data can be deallocated... 

     total cpu time spent up to now is        1.0 secs

     Self-consistent Calculation

     iteration #  1     ecut=    60.00 Ry     beta= 0.70
     Davidson diagonalization with overlap
     ethr =  1.00E-02,  avg # of iterations =  4.1

     total cpu time spent up to now is        3.6 secs

     total energy              =     -64.97214350 Ry
     estimated scf accuracy    <       0.48666488 Ry

     iteration #  2     ecut=    60.00 Ry     beta= 0.70
     Davidson diagonalization with overlap
     ethr =  6.08E-03,  avg # of iterations =  2.0

     total cpu time spent up to now is        5.4 secs

     total energy              =     -65.11514968 Ry
     estimated scf accuracy    <       0.20606750 Ry

     iteration #  3     ecut=    60.00 Ry     beta= 0.70
     Davidson diagonalization with overlap
     ethr =  2.58E-03,  avg # of iterations =  1.0

     total cpu time spent up to now is        6.7 secs

     total energy              =     -65.15064284 Ry
     estimated scf accuracy    <       0.00198873 Ry

     iteration #  4     ecut=    60.00 Ry     beta= 0.70
     Davidson diagonalization with overlap
     ethr =  2.49E-05,  avg # of iterations =  5.3

     total cpu time spent up to now is        9.9 secs

     total energy              =     -65.15185175 Ry
     estimated scf accuracy    <       0.00056207 Ry

     iteration #  5     ecut=    60.00 Ry     beta= 0.70
     Davidson diagonalization with overlap
     ethr =  7.03E-06,  avg # of iterations =  1.7

     total cpu time spent up to now is       11.5 secs

     total energy              =     -65.15193915 Ry
     estimated scf accuracy    <       0.00000701 Ry

     iteration #  6     ecut=    60.00 Ry     beta= 0.70
     Davidson diagonalization with overlap
     ethr =  8.76E-08,  avg # of iterations =  3.3

     total cpu time spent up to now is       13.8 secs

     total energy              =     -65.15194450 Ry
     estimated scf accuracy    <       0.00000340 Ry

     iteration #  7     ecut=    60.00 Ry     beta= 0.70
     Davidson diagonalization with overlap
     ethr =  4.26E-08,  avg # of iterations =  1.9

     total cpu time spent up to now is       15.4 secs

     total energy              =     -65.15194525 Ry
     estimated scf accuracy    <       0.00000004 Ry

     iteration #  8     ecut=    60.00 Ry     beta= 0.70
     Davidson diagonalization with overlap
     ethr =  4.63E-10,  avg # of iterations =  2.1

     total cpu time spent up to now is       17.2 secs

     total energy              =     -65.15194527 Ry
     estimated scf accuracy    <          4.5E-10 Ry

     iteration #  9     ecut=    60.00 Ry     beta= 0.70
     Davidson diagonalization with overlap
     ethr =  5.63E-12,  avg # of iterations =  3.8

     total cpu time spent up to now is       19.7 secs

     total energy              =     -65.15194527 Ry
     estimated scf accuracy    <          4.3E-10 Ry

     iteration # 10     ecut=    60.00 Ry     beta= 0.70
     Davidson diagonalization with overlap
     ethr =  5.37E-12,  avg # of iterations =  1.5

     total cpu time spent up to now is       21.2 secs

     total energy              =     -65.15194527 Ry
     estimated scf accuracy    <          2.3E-12 Ry

     iteration # 11     ecut=    60.00 Ry     beta= 0.70
     Davidson diagonalization with overlap
     ethr =  1.00E-13,  avg # of iterations =  3.2

     total cpu time spent up to now is       23.4 secs

     total energy              =     -65.15194527 Ry
     estimated scf accuracy    <          2.3E-12 Ry

     iteration # 12     ecut=    60.00 Ry     beta= 0.70
     Davidson diagonalization with overlap
     ethr =  1.00E-13,  avg # of iterations =  1.0

     total cpu time spent up to now is       24.7 secs

     End of self-consistent calculation

     Number of k-points >= 100: set verbosity='high' to print the bands.

     the Fermi energy is    10.3567 ev

!    total energy              =     -65.15194527 Ry

     total all-electron energy =      -656.261907 Ry
     estimated scf accuracy    <          1.0E-13 Ry

     The total energy is the sum of the following terms:
     one-electron contribution =       5.98113068 Ry
     hartree contribution      =       2.42304621 Ry
     xc contribution           =     -10.99450082 Ry
     ewald contribution        =     -20.81214835 Ry
     one-center paw contrib.   =     -41.74947298 Ry

     convergence has been achieved in  12 iterations

     Forces acting on atoms (cartesian axes, Ry/au):

     atom    1 type  1   force =    -0.07067777   -0.07067777   -0.07067777
     atom    2 type  2   force =     0.07067777    0.07067777    0.07067777

     Total force =     0.173124     Total SCF correction =     0.000000


     Computing stress (Cartesian axis) and pressure

          total   stress  (Ry/bohr**3)                   (kbar)     P=      122.96
   0.00083589   0.00225492   0.00225492          122.96      331.71      331.71
   0.00225492   0.00083589   0.00225492          331.71      122.96      331.71
   0.00225492   0.00225492   0.00083589          331.71      331.71      122.96


     BFGS Geometry Optimization
     Energy error            =      0.0E+00 Ry
     Gradient error          =      7.1E-02 Ry/Bohr

     number of scf cycles    =   1
     number of bfgs steps    =   0

     energy             new  =     -65.1519452730 Ry

     new trust radius        =       0.1224174925 bohr
     new conv_thr            =            1.0E-12 Ry


ATOMIC_POSITIONS (crystal)
Si            0.2595479142        0.2213562573        0.2595479142
C            -0.0095479142        0.0286437427       -0.0095479142



     Writing output data file ./tmp/SiC.save/
     NEW-OLD atomic charge density approx. for the potential

     total cpu time spent up to now is       25.2 secs

     Self-consistent Calculation

     iteration #  1     ecut=    60.00 Ry     beta= 0.70
     Davidson diagonalization with overlap
     ethr =  1.00E-06,  avg # of iterations =  9.3

     total cpu time spent up to now is       30.7 secs

     total energy              =     -65.16139554 Ry
     estimated scf accuracy    <       0.00487351 Ry

     iteration #  2     ecut=    60.00 Ry     beta= 0.70
     Davidson diagonalization with overlap
     ethr =  6.09E-05,  avg # of iterations =  2.0

     total cpu time spent up to now is       32.4 secs

     total energy              =     -65.16215683 Ry
     estimated scf accuracy    <       0.00012857 Ry

     iteration #  3     ecut=    60.00 Ry     beta= 0.70
     Davidson diagonalization with overlap
     ethr =  1.61E-06,  avg # of iterations =  2.1

     total cpu time spent up to now is       34.4 secs

     total energy              =     -65.16219390 Ry
     estimated scf accuracy    <       0.00001682 Ry

     iteration #  4     ecut=    60.00 Ry     beta= 0.70
     Davidson diagonalization with overlap
     ethr =  2.10E-07,  avg # of iterations =  1.6

     total cpu time spent up to now is       36.0 secs

     total energy              =     -65.16219498 Ry
     estimated scf accuracy    <       0.00000166 Ry

     iteration #  5     ecut=    60.00 Ry     beta= 0.70
     Davidson diagonalization with overlap
     ethr =  2.08E-08,  avg # of iterations =  1.8

     total cpu time spent up to now is       37.6 secs

     total energy              =     -65.16219578 Ry
     estimated scf accuracy    <       0.00000001 Ry

     iteration #  6     ecut=    60.00 Ry     beta= 0.70
     Davidson diagonalization with overlap
     ethr =  1.35E-10,  avg # of iterations =  3.9

     total cpu time spent up to now is       40.3 secs

     total energy              =     -65.16219581 Ry
     estimated scf accuracy    <          2.0E-09 Ry

     iteration #  7     ecut=    60.00 Ry     beta= 0.70
     Davidson diagonalization with overlap
     ethr =  2.53E-11,  avg # of iterations =  2.0

     total cpu time spent up to now is       42.1 secs

     total energy              =     -65.16219580 Ry
     estimated scf accuracy    <          6.7E-11 Ry

     iteration #  8     ecut=    60.00 Ry     beta= 0.70
     Davidson diagonalization with overlap
     ethr =  8.37E-13,  avg # of iterations =  2.0

     total cpu time spent up to now is       43.9 secs

     total energy              =     -65.16219580 Ry
     estimated scf accuracy    <          1.4E-12 Ry

     iteration #  9     ecut=    60.00 Ry     beta= 0.70
     Davidson diagonalization with overlap
     ethr =  1.00E-13,  avg # of iterations =  1.5

     total cpu time spent up to now is       45.4 secs

     End of self-consistent calculation

     Number of k-points >= 100: set verbosity='high' to print the bands.

     the Fermi energy is    10.4130 ev

!    total energy              =     -65.16219580 Ry

     total all-electron energy =      -656.272158 Ry
     estimated scf accuracy    <          1.5E-14 Ry

     The total energy is the sum of the following terms:
     one-electron contribution =       6.22107274 Ry
     hartree contribution      =       2.31103937 Ry
     xc contribution           =     -10.95939257 Ry
     ewald contribution        =     -20.99132965 Ry
     one-center paw contrib.   =     -41.74358569 Ry

     convergence has been achieved in   9 iterations

     Forces acting on atoms (cartesian axes, Ry/au):

     atom    1 type  1   force =     0.01413329    0.01413329    0.01413329
     atom    2 type  2   force =    -0.01413329   -0.01413329   -0.01413329

     Total force =     0.034619     Total SCF correction =     0.000000


     Computing stress (Cartesian axis) and pressure

          total   stress  (Ry/bohr**3)                   (kbar)     P=       41.48
   0.00028195   0.00146723   0.00146723           41.48      215.84      215.84
   0.00146723   0.00028195   0.00146723          215.84       41.48      215.84
   0.00146723   0.00146723   0.00028195          215.84      215.84       41.48

     Energy error            =      1.0E-02 Ry
     Gradient error          =      1.4E-02 Ry/Bohr

     number of scf cycles    =   2
     number of bfgs steps    =   1

     energy             old  =     -65.1519452730 Ry
     energy             new  =     -65.1621958000 Ry

     CASE: energy            _new < energy            _old

     new trust radius        =       0.0204001963 bohr
     new conv_thr            =            1.0E-12 Ry


ATOMIC_POSITIONS (crystal)
Si            0.2579568073        0.2261295782        0.2579568073
C            -0.0079568073        0.0238704218       -0.0079568073



     Writing output data file ./tmp/SiC.save/
     NEW-OLD atomic charge density approx. for the potential

     total cpu time spent up to now is       46.0 secs

     Self-consistent Calculation

     iteration #  1     ecut=    60.00 Ry     beta= 0.70
     Davidson diagonalization with overlap
     ethr =  1.00E-06,  avg # of iterations =  5.1

     total cpu time spent up to now is       49.3 secs

     total energy              =     -65.16277622 Ry
     estimated scf accuracy    <       0.00011823 Ry

     iteration #  2     ecut=    60.00 Ry     beta= 0.70
     Davidson diagonalization with overlap
     ethr =  1.48E-06,  avg # of iterations =  1.9

     total cpu time spent up to now is       51.0 secs

     total energy              =     -65.16279808 Ry
     estimated scf accuracy    <       0.00000337 Ry

     iteration #  3     ecut=    60.00 Ry     beta= 0.70
     Davidson diagonalization with overlap
     ethr =  4.22E-08,  avg # of iterations =  2.0

     total cpu time spent up to now is       52.8 secs

     total energy              =     -65.16279824 Ry
     estimated scf accuracy    <       0.00000050 Ry

     iteration #  4     ecut=    60.00 Ry     beta= 0.70
     Davidson diagonalization with overlap
     ethr =  6.22E-09,  avg # of iterations =  1.5

     total cpu time spent up to now is       54.4 secs

     total energy              =     -65.16279857 Ry
     estimated scf accuracy    <       0.00000004 Ry

     iteration #  5     ecut=    60.00 Ry     beta= 0.70
     Davidson diagonalization with overlap
     ethr =  5.02E-10,  avg # of iterations =  1.9

     total cpu time spent up to now is       56.1 secs

     total energy              =     -65.16279854 Ry
     estimated scf accuracy    <          2.7E-10 Ry

     iteration #  6     ecut=    60.00 Ry     beta= 0.70
     Davidson diagonalization with overlap
     ethr =  3.41E-12,  avg # of iterations =  4.0

     total cpu time spent up to now is       58.8 secs

     total energy              =     -65.16279854 Ry
     estimated scf accuracy    <          3.9E-11 Ry

     iteration #  7     ecut=    60.00 Ry     beta= 0.70
     Davidson diagonalization with overlap
     ethr =  4.85E-13,  avg # of iterations =  2.0

     total cpu time spent up to now is       60.5 secs

     total energy              =     -65.16279854 Ry
     estimated scf accuracy    <          1.9E-12 Ry

     iteration #  8     ecut=    60.00 Ry     beta= 0.70
     Davidson diagonalization with overlap
     ethr =  1.00E-13,  avg # of iterations =  1.0

     total cpu time spent up to now is       61.9 secs

     End of self-consistent calculation

     Number of k-points >= 100: set verbosity='high' to print the bands.

     the Fermi energy is    10.3655 ev

!    total energy              =     -65.16279854 Ry

     total all-electron energy =      -656.272761 Ry
     estimated scf accuracy    <          3.2E-14 Ry

     The total energy is the sum of the following terms:
     one-electron contribution =       6.18465644 Ry
     hartree contribution      =       2.32780035 Ry
     xc contribution           =     -10.96453295 Ry
     ewald contribution        =     -20.96641160 Ry
     one-center paw contrib.   =     -41.74431079 Ry

     convergence has been achieved in   8 iterations

     Forces acting on atoms (cartesian axes, Ry/au):

     atom    1 type  1   force =     0.00334134    0.00334134    0.00334134
     atom    2 type  2   force =    -0.00334134   -0.00334134   -0.00334134

     Total force =     0.008185     Total SCF correction =     0.000000


     Computing stress (Cartesian axis) and pressure

          total   stress  (Ry/bohr**3)                   (kbar)     P=       51.14
   0.00034767   0.00157050   0.00157050           51.14      231.03      231.03
   0.00157050   0.00034767   0.00157050          231.03       51.14      231.03
   0.00157050   0.00157050   0.00034767          231.03      231.03       51.14

     Energy error            =      6.0E-04 Ry
     Gradient error          =      3.3E-03 Ry/Bohr

     number of scf cycles    =   3
     number of bfgs steps    =   2

     energy             old  =     -65.1621958000 Ry
     energy             new  =     -65.1627985367 Ry

     CASE: energy            _new < energy            _old

     new trust radius        =       0.0063161875 bohr
     new conv_thr            =            3.3E-13 Ry


ATOMIC_POSITIONS (crystal)
Si            0.2574641782        0.2276074654        0.2574641782
C            -0.0074641782        0.0223925346       -0.0074641782



     Writing output data file ./tmp/SiC.save/
     NEW-OLD atomic charge density approx. for the potential

     total cpu time spent up to now is       62.5 secs

     Self-consistent Calculation

     iteration #  1     ecut=    60.00 Ry     beta= 0.70
     Davidson diagonalization with overlap
     ethr =  1.00E-06,  avg # of iterations =  3.0

     total cpu time spent up to now is       64.6 secs

     total energy              =     -65.16282635 Ry
     estimated scf accuracy    <       0.00001087 Ry

     iteration #  2     ecut=    60.00 Ry     beta= 0.70
     Davidson diagonalization with overlap
     ethr =  1.36E-07,  avg # of iterations =  1.9

     total cpu time spent up to now is       66.3 secs

     total energy              =     -65.16282873 Ry
     estimated scf accuracy    <       0.00000030 Ry

     iteration #  3     ecut=    60.00 Ry     beta= 0.70
     Davidson diagonalization with overlap
     ethr =  3.74E-09,  avg # of iterations =  2.5

     total cpu time spent up to now is       68.4 secs

     total energy              =     -65.16282871 Ry
     estimated scf accuracy    <       0.00000005 Ry

     iteration #  4     ecut=    60.00 Ry     beta= 0.70
     Davidson diagonalization with overlap
     ethr =  6.49E-10,  avg # of iterations =  2.0

     total cpu time spent up to now is       70.1 secs

     total energy              =     -65.16282877 Ry
     estimated scf accuracy    <          4.5E-09 Ry

     iteration #  5     ecut=    60.00 Ry     beta= 0.70
     Davidson diagonalization with overlap
     ethr =  5.68E-11,  avg # of iterations =  1.7

     total cpu time spent up to now is       71.7 secs

     total energy              =     -65.16282876 Ry
     estimated scf accuracy    <          3.4E-11 Ry

     iteration #  6     ecut=    60.00 Ry     beta= 0.70
     Davidson diagonalization with overlap
     ethr =  4.20E-13,  avg # of iterations =  3.6

     total cpu time spent up to now is       74.2 secs

     total energy              =     -65.16282876 Ry
     estimated scf accuracy    <          2.8E-12 Ry

     iteration #  7     ecut=    60.00 Ry     beta= 0.70
     Davidson diagonalization with overlap
     ethr =  1.00E-13,  avg # of iterations =  1.1

     total cpu time spent up to now is       75.6 secs

     End of self-consistent calculation

     Number of k-points >= 100: set verbosity='high' to print the bands.

     the Fermi energy is    10.3497 ev

!    total energy              =     -65.16282876 Ry

     total all-electron energy =      -656.272791 Ry
     estimated scf accuracy    <          1.4E-13 Ry

     The total energy is the sum of the following terms:
     one-electron contribution =       6.17314087 Ry
     hartree contribution      =       2.33309577 Ry
     xc contribution           =     -10.96616435 Ry
     ewald contribution        =     -20.95834806 Ry
     one-center paw contrib.   =     -41.74455299 Ry

     convergence has been achieved in   7 iterations

     Forces acting on atoms (cartesian axes, Ry/au):

     atom    1 type  1   force =    -0.00025091   -0.00025091   -0.00025091
     atom    2 type  2   force =     0.00025091    0.00025091    0.00025091

     Total force =     0.000615     Total SCF correction =     0.000000


     Computing stress (Cartesian axis) and pressure

          total   stress  (Ry/bohr**3)                   (kbar)     P=       54.40
   0.00036981   0.00160447   0.00160447           54.40      236.03      236.03
   0.00160447   0.00036981   0.00160447          236.03       54.40      236.03
   0.00160447   0.00160447   0.00036981          236.03      236.03       54.40

     Energy error            =      3.0E-05 Ry
     Gradient error          =      2.5E-04 Ry/Bohr

     number of scf cycles    =   4
     number of bfgs steps    =   3

     energy             old  =     -65.1627985367 Ry
     energy             new  =     -65.1628287612 Ry

     CASE: energy            _new < energy            _old

     new trust radius        =       0.0004411718 bohr
     new conv_thr            =            2.5E-14 Ry


ATOMIC_POSITIONS (crystal)
Si            0.2574985872        0.2275042383        0.2574985872
C            -0.0074985872        0.0224957617       -0.0074985872



     Writing output data file ./tmp/SiC.save/
     NEW-OLD atomic charge density approx. for the potential

     total cpu time spent up to now is       76.2 secs

     Self-consistent Calculation

     iteration #  1     ecut=    60.00 Ry     beta= 0.70
     Davidson diagonalization with overlap
     ethr =  1.00E-06,  avg # of iterations =  2.0

     Threshold (ethr) on eigenvalues was too large:
     Diagonalizing with lowered threshold

     Davidson diagonalization with overlap
     ethr =  5.91E-10,  avg # of iterations =  2.4

     total cpu time spent up to now is       79.6 secs

     total energy              =     -65.16282919 Ry
     estimated scf accuracy    <       0.00000006 Ry

     iteration #  2     ecut=    60.00 Ry     beta= 0.70
     Davidson diagonalization with overlap
     ethr =  7.07E-10,  avg # of iterations =  1.9

     total cpu time spent up to now is       81.3 secs

     total energy              =     -65.16282916 Ry
     estimated scf accuracy    <          1.5E-09 Ry

     iteration #  3     ecut=    60.00 Ry     beta= 0.70
     Davidson diagonalization with overlap
     ethr =  1.93E-11,  avg # of iterations =  2.0

     total cpu time spent up to now is       83.1 secs

     total energy              =     -65.16282917 Ry
     estimated scf accuracy    <          2.3E-10 Ry

     iteration #  4     ecut=    60.00 Ry     beta= 0.70
     Davidson diagonalization with overlap
     ethr =  2.82E-12,  avg # of iterations =  1.7

     total cpu time spent up to now is       84.7 secs

     total energy              =     -65.16282916 Ry
     estimated scf accuracy    <          2.0E-11 Ry

     iteration #  5     ecut=    60.00 Ry     beta= 0.70
     Davidson diagonalization with overlap
     ethr =  2.48E-13,  avg # of iterations =  2.0

     total cpu time spent up to now is       86.4 secs

     total energy              =     -65.16282917 Ry
     estimated scf accuracy    <          1.1E-13 Ry

     iteration #  6     ecut=    60.00 Ry     beta= 0.70
     Davidson diagonalization with overlap
     ethr =  1.00E-13,  avg # of iterations =  1.0

     total cpu time spent up to now is       87.8 secs

     End of self-consistent calculation

     Number of k-points >= 100: set verbosity='high' to print the bands.

     the Fermi energy is    10.3509 ev

!    total energy              =     -65.16282917 Ry

     total all-electron energy =      -656.272791 Ry
     estimated scf accuracy    <          7.7E-15 Ry

     The total energy is the sum of the following terms:
     one-electron contribution =       6.17394883 Ry
     hartree contribution      =       2.33272442 Ry
     xc contribution           =     -10.96604981 Ry
     ewald contribution        =     -20.95891684 Ry
     one-center paw contrib.   =     -41.74453577 Ry

     convergence has been achieved in   6 iterations

     Forces acting on atoms (cartesian axes, Ry/au):

     atom    1 type  1   force =     0.00000392    0.00000392    0.00000392
     atom    2 type  2   force =    -0.00000392   -0.00000392   -0.00000392

     Total force =     0.000010     Total SCF correction =     0.000000


     Computing stress (Cartesian axis) and pressure

          total   stress  (Ry/bohr**3)                   (kbar)     P=       54.17
   0.00036823   0.00160206   0.00160206           54.17      235.67      235.67
   0.00160206   0.00036823   0.00160206          235.67       54.17      235.67
   0.00160206   0.00160206   0.00036823          235.67      235.67       54.17

     Energy error            =      4.0E-07 Ry
     Gradient error          =      3.9E-06 Ry/Bohr

     bfgs converged in   5 scf cycles and   4 bfgs steps
     (criteria: energy <  1.0E-05 Ry, force <  1.0E-04 Ry/Bohr)

     End of BFGS Geometry Optimization

     Final energy             =     -65.1628291652 Ry

     File ./tmp/SiC.bfgs deleted, as requested
Begin final coordinates

ATOMIC_POSITIONS (crystal)
Si            0.2574985872        0.2275042383        0.2574985872
C            -0.0074985872        0.0224957617       -0.0074985872
End final coordinates



     Writing output data file ./tmp/SiC.save/
 
     init_run     :      0.57s CPU      0.71s WALL (       1 calls)
     electrons    :     69.31s CPU     84.51s WALL (       5 calls)
     update_pot   :      0.32s CPU      0.34s WALL (       4 calls)
     forces       :      0.36s CPU      0.37s WALL (       5 calls)
     stress       :      0.96s CPU      0.98s WALL (       5 calls)

     Called by init_run:
     wfcinit      :      0.44s CPU      0.54s WALL (       1 calls)
     potinit      :      0.06s CPU      0.07s WALL (       1 calls)
     hinit0       :      0.06s CPU      0.07s WALL (       1 calls)

     Called by electrons:
     c_bands      :     58.09s CPU     72.49s WALL (      43 calls)
     sum_band     :      8.83s CPU      9.49s WALL (      43 calls)
     v_of_rho     :      0.09s CPU      0.10s WALL (      47 calls)
     newd         :      0.25s CPU      0.25s WALL (      47 calls)
     PAW_pot      :      2.46s CPU      2.54s WALL (      51 calls)
     mix_rho      :      0.01s CPU      0.02s WALL (      43 calls)

     Called by c_bands:
     init_us_2    :      0.58s CPU      0.72s WALL (   29088 calls)
     cegterg      :     56.64s CPU     70.85s WALL (   12384 calls)

     Called by *egterg:
     cdiaghg      :     27.45s CPU     37.45s WALL (   41305 calls)
     h_psi        :     17.34s CPU     20.48s WALL (   43033 calls)
     s_psi        :      0.28s CPU      0.33s WALL (   43033 calls)
     g_psi        :      0.05s CPU      0.08s WALL (   30361 calls)

     Called by h_psi:
     h_psi:calbec :      0.84s CPU      0.91s WALL (   43033 calls)
     vloc_psi     :     15.98s CPU     18.91s WALL (   43033 calls)
     add_vuspsi   :      0.33s CPU      0.40s WALL (   43033 calls)

     General routines
     calbec       :      1.15s CPU      1.28s WALL (   63769 calls)
     fft          :      0.07s CPU      0.10s WALL (     731 calls)
     ffts         :      0.01s CPU      0.01s WALL (      90 calls)
     fftw         :     17.99s CPU     21.17s WALL (  611560 calls)
     interpolate  :      0.01s CPU      0.01s WALL (      47 calls)
 
     Parallel routines
 
     PWSCF        :   1m12.79s CPU   1m29.44s WALL

 
   This run was terminated on:  17:43:28  21Oct2021            

=------------------------------------------------------------------------------=
   JOB DONE.
=------------------------------------------------------------------------------=
