
     Program PWSCF v.6.8 starts on 21Oct2021 at 17:44:43 

     This program is part of the open-source Quantum ESPRESSO suite
     for quantum simulation of materials; please cite
         "P. Giannozzi et al., J. Phys.:Condens. Matter 21 395502 (2009);
         "P. Giannozzi et al., J. Phys.:Condens. Matter 29 465901 (2017);
         "P. Giannozzi et al., J. Chem. Phys. 152 154105 (2020);
          URL http://www.quantum-espresso.org", 
     in publications or presentations arising from this work. More details at
     http://www.quantum-espresso.org/quote

     Parallel version (MPI), running on    24 processors

     MPI processes distributed on     1 nodes
     R & G space division:  proc/nbgrp/npool/nimage =      24
     60193 MiB available memory on the printing compute node when the environment starts
 
     Reading input from Dst03_03.in

     Current dimensions of program PWSCF are:
     Max number of different atomic species (ntypx) = 10
     Max number of k-points (npk) =  40000
     Max angular momentum in pseudopotentials (lmaxx) =  4
     Message from routine iosys:
     BEWARE:  force calculation with tetrahedra (not recommanded)
     Message from routine iosys:
     BEWARE: stress calculation with tetrahedra (not recommanded)
     file Si.pbe-n-kjpaw_psl.1.0.0.UPF: wavefunction(s)  3S 3P renormalized
     file C.pbe-n-kjpaw_psl.1.0.0.UPF: wavefunction(s)  2S 2P renormalized
     Message from routine setup:
     using ibrav=0 with symmetry is DISCOURAGED, use correct ibrav instead

     Subspace diagonalization in iterative solution of the eigenvalue problem:
     one sub-group per band group will be used
     scalapack distributed-memory algorithm (size of sub-group:  4*  4 procs)

 
     Parallelization info
     --------------------
     sticks:   dense  smooth     PW     G-vecs:    dense   smooth      PW
     Min          45      22      7                 1038      364      68
     Max          46      23      8                 1043      369      70
     Sum        1101     541    177                24991     8789    1651
 
     Using Slab Decomposition
 


     bravais-lattice index     =            0
     lattice parameter (alat)  =       8.2762  a.u.
     unit-cell volume          =     140.9209 (a.u.)^3
     number of atoms/cell      =            2
     number of atomic types    =            2
     number of electrons       =         8.00
     number of Kohn-Sham states=            8
     kinetic-energy cutoff     =      60.0000  Ry
     charge density cutoff     =     480.0000  Ry
     scf convergence threshold =      1.0E-12
     mixing beta               =       0.7000
     number of iterations used =            8  plain     mixing
     energy convergence thresh.=      1.0E-05
     force convergence thresh. =      1.0E-04
     Exchange-correlation= SLA  PW   PBX  PBC
                           (   1   4   3   4   0   0   0)
     nstep                     =           50


     celldm(1)=   8.276169  celldm(2)=   0.000000  celldm(3)=   0.000000
     celldm(4)=   0.000000  celldm(5)=   0.000000  celldm(6)=   0.000000

     crystal axes: (cart. coord. in units of alat)
               a(1) = (  -0.514782   0.000000   0.514782 )  
               a(2) = (  -0.030493   0.484288   0.484288 )  
               a(3) = (  -0.514782   0.514782   0.000000 )  

     reciprocal axes: (cart. coord. in units 2 pi/alat)
               b(1) = ( -1.002858 -1.002858  0.939713 )  
               b(2) = (  1.066004  1.066004  1.066004 )  
               b(3) = ( -1.002858  0.939713 -1.002858 )  


     PseudoPot. # 1 for Si read from file:
     /opt/pbe/Si.pbe-n-kjpaw_psl.1.0.0.UPF
     MD5 check sum: c0017aaf58f3391b47f56383898ff6ca
     Pseudo is Projector augmented-wave + core cor, Zval =  4.0
     Generated using 'atomic' code by A. Dal Corso  v.6.7MaX
     Shape of augmentation charge: PSQ
     Using radial grid of 1141 points,  6 beta functions with: 
                l(1) =   0
                l(2) =   0
                l(3) =   1
                l(4) =   1
                l(5) =   2
                l(6) =   2
     Q(r) pseudized with 0 coefficients 


     PseudoPot. # 2 for C  read from file:
     /opt/pbe/C.pbe-n-kjpaw_psl.1.0.0.UPF
     MD5 check sum: 8e1159f88321651dfc8dcabf1d078809
     Pseudo is Projector augmented-wave + core cor, Zval =  4.0
     Generated using 'atomic' code by A. Dal Corso  v.6.7MaX
     Shape of augmentation charge: PSQ
     Using radial grid of 1073 points,  4 beta functions with: 
                l(1) =   0
                l(2) =   0
                l(3) =   1
                l(4) =   1
     Q(r) pseudized with 0 coefficients 


     atomic species   valence    mass     pseudopotential
        Si             4.00    28.08500     Si( 1.00)
        C              4.00    12.01100     C ( 1.00)

      6 Sym. Ops. (no inversion) found



   Cartesian axes

     site n.     atom                  positions (alat units)
         1           Si  tau(   1) = (  -0.2650141   0.2497674   0.2497674  )
         2           C   tau(   2) = (   0.0000000   0.0000000   0.0000000  )

     number of k points=   288 (tetrahedron method)

     Number of k-points >= 100: set verbosity='high' to print them.

     Dense  grid:    24991 G-vectors     FFT dimensions: (  45,  40,  45)

     Smooth grid:     8789 G-vectors     FFT dimensions: (  30,  27,  30)

     Estimated max dynamical RAM per process >       9.06 MB

     Estimated total dynamical RAM >     217.50 MB

     Initial potential from superposition of free atoms

     starting charge    7.99940, renormalised to    8.00000
     Starting wfcs are    8 randomized atomic wfcs
     Checking if some PAW data can be deallocated... 

     total cpu time spent up to now is        1.0 secs

     Self-consistent Calculation

     iteration #  1     ecut=    60.00 Ry     beta= 0.70
     Davidson diagonalization with overlap
     ethr =  1.00E-02,  avg # of iterations =  3.8

     total cpu time spent up to now is        3.5 secs

     total energy              =     -65.01755830 Ry
     estimated scf accuracy    <       0.45132531 Ry

     iteration #  2     ecut=    60.00 Ry     beta= 0.70
     Davidson diagonalization with overlap
     ethr =  5.64E-03,  avg # of iterations =  2.0

     total cpu time spent up to now is        5.4 secs

     total energy              =     -65.15136759 Ry
     estimated scf accuracy    <       0.18961201 Ry

     iteration #  3     ecut=    60.00 Ry     beta= 0.70
     Davidson diagonalization with overlap
     ethr =  2.37E-03,  avg # of iterations =  1.0

     total cpu time spent up to now is        6.7 secs

     total energy              =     -65.18334386 Ry
     estimated scf accuracy    <       0.00199087 Ry

     iteration #  4     ecut=    60.00 Ry     beta= 0.70
     Davidson diagonalization with overlap
     ethr =  2.49E-05,  avg # of iterations =  5.2

     total cpu time spent up to now is        9.9 secs

     total energy              =     -65.18453742 Ry
     estimated scf accuracy    <       0.00075908 Ry

     iteration #  5     ecut=    60.00 Ry     beta= 0.70
     Davidson diagonalization with overlap
     ethr =  9.49E-06,  avg # of iterations =  1.6

     total cpu time spent up to now is       11.4 secs

     total energy              =     -65.18465392 Ry
     estimated scf accuracy    <       0.00000767 Ry

     iteration #  6     ecut=    60.00 Ry     beta= 0.70
     Davidson diagonalization with overlap
     ethr =  9.59E-08,  avg # of iterations =  3.6

     total cpu time spent up to now is       13.9 secs

     total energy              =     -65.18466081 Ry
     estimated scf accuracy    <       0.00000639 Ry

     iteration #  7     ecut=    60.00 Ry     beta= 0.70
     Davidson diagonalization with overlap
     ethr =  7.99E-08,  avg # of iterations =  2.0

     total cpu time spent up to now is       15.6 secs

     total energy              =     -65.18466226 Ry
     estimated scf accuracy    <       0.00000010 Ry

     iteration #  8     ecut=    60.00 Ry     beta= 0.70
     Davidson diagonalization with overlap
     ethr =  1.25E-09,  avg # of iterations =  2.0

     total cpu time spent up to now is       17.4 secs

     total energy              =     -65.18466230 Ry
     estimated scf accuracy    <          1.8E-09 Ry

     iteration #  9     ecut=    60.00 Ry     beta= 0.70
     Davidson diagonalization with overlap
     ethr =  2.19E-11,  avg # of iterations =  2.9

     total cpu time spent up to now is       19.5 secs

     total energy              =     -65.18466230 Ry
     estimated scf accuracy    <          3.2E-10 Ry

     iteration # 10     ecut=    60.00 Ry     beta= 0.70
     Davidson diagonalization with overlap
     ethr =  4.02E-12,  avg # of iterations =  2.0

     total cpu time spent up to now is       21.2 secs

     End of self-consistent calculation

     Number of k-points >= 100: set verbosity='high' to print the bands.

     the Fermi energy is    10.3831 ev

!    total energy              =     -65.18466230 Ry

     total all-electron energy =      -656.294624 Ry
     estimated scf accuracy    <          7.0E-13 Ry

     The total energy is the sum of the following terms:
     one-electron contribution =       5.97667267 Ry
     hartree contribution      =       2.37149624 Ry
     xc contribution           =     -10.96527237 Ry
     ewald contribution        =     -20.82292480 Ry
     one-center paw contrib.   =     -41.74463404 Ry

     convergence has been achieved in  10 iterations

     Forces acting on atoms (cartesian axes, Ry/au):

     atom    1 type  1   force =    -0.03007551   -0.03007551   -0.03007551
     atom    2 type  2   force =     0.03007551    0.03007551    0.03007551

     Total force =     0.073670     Total SCF correction =     0.000000


     Computing stress (Cartesian axis) and pressure

          total   stress  (Ry/bohr**3)                   (kbar)     P=       40.53
   0.00027553   0.00121387   0.00121387           40.53      178.57      178.57
   0.00121387   0.00027553   0.00121387          178.57       40.53      178.57
   0.00121387   0.00121387   0.00027553          178.57      178.57       40.53


     BFGS Geometry Optimization
     Energy error            =      0.0E+00 Ry
     Gradient error          =      3.0E-02 Ry/Bohr

     number of scf cycles    =   1
     number of bfgs steps    =   0

     energy             new  =     -65.1846622992 Ry

     new trust radius        =       0.0520923045 bohr
     new conv_thr            =            1.0E-12 Ry


ATOMIC_POSITIONS (crystal)
Si            0.2538738452        0.2383784645        0.2538738452
C            -0.0038738452        0.0116215355       -0.0038738452



     Writing output data file ./tmp/SiC.save/
     NEW-OLD atomic charge density approx. for the potential

     total cpu time spent up to now is       21.8 secs

     Self-consistent Calculation

     iteration #  1     ecut=    60.00 Ry     beta= 0.70
     Davidson diagonalization with overlap
     ethr =  1.00E-06,  avg # of iterations =  7.4

     total cpu time spent up to now is       26.2 secs

     total energy              =     -65.18706441 Ry
     estimated scf accuracy    <       0.00078711 Ry

     iteration #  2     ecut=    60.00 Ry     beta= 0.70
     Davidson diagonalization with overlap
     ethr =  9.84E-06,  avg # of iterations =  2.0

     total cpu time spent up to now is       27.8 secs

     total energy              =     -65.18719284 Ry
     estimated scf accuracy    <       0.00001423 Ry

     iteration #  3     ecut=    60.00 Ry     beta= 0.70
     Davidson diagonalization with overlap
     ethr =  1.78E-07,  avg # of iterations =  2.0

     total cpu time spent up to now is       29.6 secs

     total energy              =     -65.18719600 Ry
     estimated scf accuracy    <       0.00000154 Ry

     iteration #  4     ecut=    60.00 Ry     beta= 0.70
     Davidson diagonalization with overlap
     ethr =  1.92E-08,  avg # of iterations =  1.9

     total cpu time spent up to now is       31.2 secs

     total energy              =     -65.18719630 Ry
     estimated scf accuracy    <       0.00000023 Ry

     iteration #  5     ecut=    60.00 Ry     beta= 0.70
     Davidson diagonalization with overlap
     ethr =  2.84E-09,  avg # of iterations =  1.6

     total cpu time spent up to now is       32.7 secs

     total energy              =     -65.18719634 Ry
     estimated scf accuracy    <          1.2E-09 Ry

     iteration #  6     ecut=    60.00 Ry     beta= 0.70
     Davidson diagonalization with overlap
     ethr =  1.51E-11,  avg # of iterations =  4.0

     total cpu time spent up to now is       35.4 secs

     total energy              =     -65.18719634 Ry
     estimated scf accuracy    <          3.9E-10 Ry

     iteration #  7     ecut=    60.00 Ry     beta= 0.70
     Davidson diagonalization with overlap
     ethr =  4.92E-12,  avg # of iterations =  2.0

     total cpu time spent up to now is       37.1 secs

     total energy              =     -65.18719634 Ry
     estimated scf accuracy    <          1.6E-11 Ry

     iteration #  8     ecut=    60.00 Ry     beta= 0.70
     Davidson diagonalization with overlap
     ethr =  1.98E-13,  avg # of iterations =  1.7

     total cpu time spent up to now is       38.6 secs

     End of self-consistent calculation

     Number of k-points >= 100: set verbosity='high' to print the bands.

     the Fermi energy is    10.3635 ev

!    total energy              =     -65.18719634 Ry

     total all-electron energy =      -656.297158 Ry
     estimated scf accuracy    <          2.2E-13 Ry

     The total energy is the sum of the following terms:
     one-electron contribution =       6.04009986 Ry
     hartree contribution      =       2.34211429 Ry
     xc contribution           =     -10.95625188 Ry
     ewald contribution        =     -20.87001333 Ry
     one-center paw contrib.   =     -41.74314528 Ry

     convergence has been achieved in   8 iterations

     Forces acting on atoms (cartesian axes, Ry/au):

     atom    1 type  1   force =     0.00075710    0.00075710    0.00075710
     atom    2 type  2   force =    -0.00075710   -0.00075710   -0.00075710

     Total force =     0.001855     Total SCF correction =     0.000000


     Computing stress (Cartesian axis) and pressure

          total   stress  (Ry/bohr**3)                   (kbar)     P=       19.89
   0.00013520   0.00096671   0.00096671           19.89      142.21      142.21
   0.00096671   0.00013520   0.00096671          142.21       19.89      142.21
   0.00096671   0.00096671   0.00013520          142.21      142.21       19.89

     Energy error            =      2.5E-03 Ry
     Gradient error          =      7.6E-04 Ry/Bohr

     number of scf cycles    =   2
     number of bfgs steps    =   1

     energy             old  =     -65.1846622992 Ry
     energy             new  =     -65.1871963429 Ry

     CASE: energy            _new < energy            _old

     new trust radius        =       0.0012791414 bohr
     new conv_thr            =            7.6E-14 Ry


ATOMIC_POSITIONS (crystal)
Si            0.2537787218        0.2386638347        0.2537787218
C            -0.0037787218        0.0113361653       -0.0037787218



     Writing output data file ./tmp/SiC.save/
     NEW-OLD atomic charge density approx. for the potential

     total cpu time spent up to now is       39.2 secs

     Self-consistent Calculation

     iteration #  1     ecut=    60.00 Ry     beta= 0.70
     Davidson diagonalization with overlap
     ethr =  1.00E-06,  avg # of iterations =  2.0

     Threshold (ethr) on eigenvalues was too large:
     Diagonalizing with lowered threshold

     Davidson diagonalization with overlap
     ethr =  4.91E-09,  avg # of iterations =  2.1

     total cpu time spent up to now is       42.2 secs

     total energy              =     -65.18719814 Ry
     estimated scf accuracy    <       0.00000044 Ry

     iteration #  2     ecut=    60.00 Ry     beta= 0.70
     Davidson diagonalization with overlap
     ethr =  5.45E-09,  avg # of iterations =  1.9

     total cpu time spent up to now is       43.9 secs

     total energy              =     -65.18719821 Ry
     estimated scf accuracy    <          7.6E-09 Ry

     iteration #  3     ecut=    60.00 Ry     beta= 0.70
     Davidson diagonalization with overlap
     ethr =  9.46E-11,  avg # of iterations =  2.1

     total cpu time spent up to now is       45.6 secs

     total energy              =     -65.18719821 Ry
     estimated scf accuracy    <          8.8E-10 Ry

     iteration #  4     ecut=    60.00 Ry     beta= 0.70
     Davidson diagonalization with overlap
     ethr =  1.10E-11,  avg # of iterations =  2.0

     total cpu time spent up to now is       47.3 secs

     total energy              =     -65.18719821 Ry
     estimated scf accuracy    <          1.4E-10 Ry

     iteration #  5     ecut=    60.00 Ry     beta= 0.70
     Davidson diagonalization with overlap
     ethr =  1.73E-12,  avg # of iterations =  1.8

     total cpu time spent up to now is       48.9 secs

     total energy              =     -65.18719821 Ry
     estimated scf accuracy    <          7.5E-13 Ry

     iteration #  6     ecut=    60.00 Ry     beta= 0.70
     Davidson diagonalization with overlap
     ethr =  1.00E-13,  avg # of iterations =  2.6

     total cpu time spent up to now is       50.8 secs

     total energy              =     -65.18719821 Ry
     estimated scf accuracy    <          1.2E-13 Ry

     iteration #  7     ecut=    60.00 Ry     beta= 0.70
     Davidson diagonalization with overlap
     ethr =  1.00E-13,  avg # of iterations =  1.0

     total cpu time spent up to now is       52.0 secs

     End of self-consistent calculation

     Number of k-points >= 100: set verbosity='high' to print the bands.

     the Fermi energy is    10.3640 ev

!    total energy              =     -65.18719821 Ry

     total all-electron energy =      -656.297160 Ry
     estimated scf accuracy    <          1.2E-15 Ry

     The total energy is the sum of the following terms:
     one-electron contribution =       6.03865411 Ry
     hartree contribution      =       2.34277514 Ry
     xc contribution           =     -10.95645162 Ry
     ewald contribution        =     -20.86900057 Ry
     one-center paw contrib.   =     -41.74317528 Ry

     convergence has been achieved in   7 iterations

     Forces acting on atoms (cartesian axes, Ry/au):

     atom    1 type  1   force =     0.00008639    0.00008639    0.00008639
     atom    2 type  2   force =    -0.00008639   -0.00008639   -0.00008639

     Total force =     0.000212     Total SCF correction =     0.000000


     Computing stress (Cartesian axis) and pressure

          total   stress  (Ry/bohr**3)                   (kbar)     P=       20.29
   0.00013791   0.00097206   0.00097206           20.29      143.00      143.00
   0.00097206   0.00013791   0.00097206          143.00       20.29      143.00
   0.00097206   0.00097206   0.00013791          143.00      143.00       20.29

     Energy error            =      1.9E-06 Ry
     Gradient error          =      8.6E-05 Ry/Bohr

     bfgs converged in   3 scf cycles and   2 bfgs steps
     (criteria: energy <  1.0E-05 Ry, force <  1.0E-04 Ry/Bohr)

     End of BFGS Geometry Optimization

     Final energy             =     -65.1871982138 Ry

     File ./tmp/SiC.bfgs deleted, as requested
Begin final coordinates

ATOMIC_POSITIONS (crystal)
Si            0.2537787218        0.2386638347        0.2537787218
C            -0.0037787218        0.0113361653       -0.0037787218
End final coordinates



     Writing output data file ./tmp/SiC.save/
 
     init_run     :      0.61s CPU      0.74s WALL (       1 calls)
     electrons    :     40.82s CPU     49.97s WALL (       3 calls)
     update_pot   :      0.18s CPU      0.19s WALL (       2 calls)
     forces       :      0.24s CPU      0.25s WALL (       3 calls)
     stress       :      0.62s CPU      0.63s WALL (       3 calls)

     Called by init_run:
     wfcinit      :      0.45s CPU      0.54s WALL (       1 calls)
     potinit      :      0.07s CPU      0.08s WALL (       1 calls)
     hinit0       :      0.08s CPU      0.10s WALL (       1 calls)

     Called by electrons:
     c_bands      :     35.83s CPU     44.51s WALL (      26 calls)
     sum_band     :      3.56s CPU      3.93s WALL (      26 calls)
     v_of_rho     :      0.05s CPU      0.06s WALL (      28 calls)
     newd         :      0.16s CPU      0.16s WALL (      28 calls)
     PAW_pot      :      1.45s CPU      1.51s WALL (      30 calls)
     mix_rho      :      0.01s CPU      0.01s WALL (      26 calls)

     Called by c_bands:
     init_us_2    :      0.34s CPU      0.44s WALL (   17568 calls)
     cegterg      :     34.94s CPU     43.51s WALL (    7488 calls)

     Called by *egterg:
     cdiaghg      :     16.69s CPU     22.74s WALL (   25051 calls)
     h_psi        :     11.09s CPU     13.05s WALL (   26203 calls)
     s_psi        :      0.16s CPU      0.20s WALL (   26203 calls)
     g_psi        :      0.03s CPU      0.05s WALL (   18427 calls)

     Called by h_psi:
     h_psi:calbec :      0.39s CPU      0.50s WALL (   26203 calls)
     vloc_psi     :     10.38s CPU     12.14s WALL (   26203 calls)
     add_vuspsi   :      0.21s CPU      0.25s WALL (   26203 calls)

     General routines
     calbec       :      0.54s CPU      0.69s WALL (   38587 calls)
     fft          :      0.06s CPU      0.09s WALL (     436 calls)
     ffts         :      0.00s CPU      0.00s WALL (      54 calls)
     fftw         :     11.81s CPU     13.64s WALL (  372414 calls)
     interpolate  :      0.01s CPU      0.01s WALL (      28 calls)
 
     Parallel routines
 
     PWSCF        :     43.19s CPU     53.72s WALL

 
   This run was terminated on:  17:45:36  21Oct2021            

=------------------------------------------------------------------------------=
   JOB DONE.
=------------------------------------------------------------------------------=
