
     Program PWSCF v.6.8 starts on 21Oct2021 at 17:35:23 

     This program is part of the open-source Quantum ESPRESSO suite
     for quantum simulation of materials; please cite
         "P. Giannozzi et al., J. Phys.:Condens. Matter 21 395502 (2009);
         "P. Giannozzi et al., J. Phys.:Condens. Matter 29 465901 (2017);
         "P. Giannozzi et al., J. Chem. Phys. 152 154105 (2020);
          URL http://www.quantum-espresso.org", 
     in publications or presentations arising from this work. More details at
     http://www.quantum-espresso.org/quote

     Parallel version (MPI), running on    24 processors

     MPI processes distributed on     1 nodes
     R & G space division:  proc/nbgrp/npool/nimage =      24
     60250 MiB available memory on the printing compute node when the environment starts
 
     Reading input from Dst01_01.in

     Current dimensions of program PWSCF are:
     Max number of different atomic species (ntypx) = 10
     Max number of k-points (npk) =  40000
     Max angular momentum in pseudopotentials (lmaxx) =  4
     Message from routine iosys:
     BEWARE:  force calculation with tetrahedra (not recommanded)
     Message from routine iosys:
     BEWARE: stress calculation with tetrahedra (not recommanded)
     file Si.pbe-n-kjpaw_psl.1.0.0.UPF: wavefunction(s)  3S 3P renormalized
     file C.pbe-n-kjpaw_psl.1.0.0.UPF: wavefunction(s)  2S 2P renormalized
     Message from routine setup:
     using ibrav=0 with symmetry is DISCOURAGED, use correct ibrav instead

     Subspace diagonalization in iterative solution of the eigenvalue problem:
     one sub-group per band group will be used
     scalapack distributed-memory algorithm (size of sub-group:  4*  4 procs)

 
     Parallelization info
     --------------------
     sticks:   dense  smooth     PW     G-vecs:    dense   smooth      PW
     Min          42      21      6                  897      317      56
     Max          43      22      7                  901      319      61
     Sum        1027     511    163                21595     7631    1411
 
     Using Slab Decomposition
 


     bravais-lattice index     =            0
     lattice parameter (alat)  =       8.2762  a.u.
     unit-cell volume          =     121.0018 (a.u.)^3
     number of atoms/cell      =            2
     number of atomic types    =            2
     number of electrons       =         8.00
     number of Kohn-Sham states=            8
     kinetic-energy cutoff     =      60.0000  Ry
     charge density cutoff     =     480.0000  Ry
     scf convergence threshold =      1.0E-12
     mixing beta               =       0.7000
     number of iterations used =            8  plain     mixing
     energy convergence thresh.=      1.0E-05
     force convergence thresh. =      1.0E-04
     Exchange-correlation= SLA  PW   PBX  PBC
                           (   1   4   3   4   0   0   0)
     nstep                     =           50


     celldm(1)=   8.276169  celldm(2)=   0.000000  celldm(3)=   0.000000
     celldm(4)=   0.000000  celldm(5)=   0.000000  celldm(6)=   0.000000

     crystal axes: (cart. coord. in units of alat)
               a(1) = (  -0.474342   0.000000   0.474342 )  
               a(2) = (   0.000000   0.474342   0.474342 )  
               a(3) = (  -0.474342   0.474342   0.000000 )  

     reciprocal axes: (cart. coord. in units 2 pi/alat)
               b(1) = ( -1.054093 -1.054093  1.054093 )  
               b(2) = (  1.054093  1.054093  1.054093 )  
               b(3) = ( -1.054093  1.054093 -1.054093 )  


     PseudoPot. # 1 for Si read from file:
     /opt/pbe/Si.pbe-n-kjpaw_psl.1.0.0.UPF
     MD5 check sum: c0017aaf58f3391b47f56383898ff6ca
     Pseudo is Projector augmented-wave + core cor, Zval =  4.0
     Generated using 'atomic' code by A. Dal Corso  v.6.7MaX
     Shape of augmentation charge: PSQ
     Using radial grid of 1141 points,  6 beta functions with: 
                l(1) =   0
                l(2) =   0
                l(3) =   1
                l(4) =   1
                l(5) =   2
                l(6) =   2
     Q(r) pseudized with 0 coefficients 


     PseudoPot. # 2 for C  read from file:
     /opt/pbe/C.pbe-n-kjpaw_psl.1.0.0.UPF
     MD5 check sum: 8e1159f88321651dfc8dcabf1d078809
     Pseudo is Projector augmented-wave + core cor, Zval =  4.0
     Generated using 'atomic' code by A. Dal Corso  v.6.7MaX
     Shape of augmentation charge: PSQ
     Using radial grid of 1073 points,  4 beta functions with: 
                l(1) =   0
                l(2) =   0
                l(3) =   1
                l(4) =   1
     Q(r) pseudized with 0 coefficients 


     atomic species   valence    mass     pseudopotential
        Si             4.00    28.08500     Si( 1.00)
        C              4.00    12.01100     C ( 1.00)

     24 Sym. Ops. (no inversion) found



   Cartesian axes

     site n.     atom                  positions (alat units)
         1           Si  tau(   1) = (  -0.2371708   0.2371708   0.2371708  )
         2           C   tau(   2) = (   0.0000000   0.0000000   0.0000000  )

     number of k points=   104 (tetrahedron method)

     Number of k-points >= 100: set verbosity='high' to print them.

     Dense  grid:    21595 G-vectors     FFT dimensions: (  40,  40,  40)

     Smooth grid:     7631 G-vectors     FFT dimensions: (  27,  27,  27)

     Estimated max dynamical RAM per process >       7.40 MB

     Estimated total dynamical RAM >     177.62 MB

     Initial potential from superposition of free atoms

     starting charge    7.99940, renormalised to    8.00000
     Starting wfcs are    8 randomized atomic wfcs
     Checking if some PAW data can be deallocated... 

     total cpu time spent up to now is        1.2 secs

     Self-consistent Calculation

     iteration #  1     ecut=    60.00 Ry     beta= 0.70
     Davidson diagonalization with overlap
     ethr =  1.00E-02,  avg # of iterations =  4.0

     total cpu time spent up to now is        2.2 secs

     total energy              =     -64.99739308 Ry
     estimated scf accuracy    <       0.50591586 Ry

     iteration #  2     ecut=    60.00 Ry     beta= 0.70
     Davidson diagonalization with overlap
     ethr =  6.32E-03,  avg # of iterations =  2.0

     total cpu time spent up to now is        2.9 secs

     total energy              =     -65.14744942 Ry
     estimated scf accuracy    <       0.14213519 Ry

     iteration #  3     ecut=    60.00 Ry     beta= 0.70
     Davidson diagonalization with overlap
     ethr =  1.78E-03,  avg # of iterations =  1.0

     total cpu time spent up to now is        3.5 secs

     total energy              =     -65.17049747 Ry
     estimated scf accuracy    <       0.00183181 Ry

     iteration #  4     ecut=    60.00 Ry     beta= 0.70
     Davidson diagonalization with overlap
     ethr =  2.29E-05,  avg # of iterations =  4.5

     total cpu time spent up to now is        4.6 secs

     total energy              =     -65.17147566 Ry
     estimated scf accuracy    <       0.00086383 Ry

     iteration #  5     ecut=    60.00 Ry     beta= 0.70
     Davidson diagonalization with overlap
     ethr =  1.08E-05,  avg # of iterations =  1.9

     total cpu time spent up to now is        5.3 secs

     total energy              =     -65.17164442 Ry
     estimated scf accuracy    <       0.00000223 Ry

     iteration #  6     ecut=    60.00 Ry     beta= 0.70
     Davidson diagonalization with overlap
     ethr =  2.78E-08,  avg # of iterations =  4.3

     total cpu time spent up to now is        6.3 secs

     total energy              =     -65.17164903 Ry
     estimated scf accuracy    <       0.00000295 Ry

     iteration #  7     ecut=    60.00 Ry     beta= 0.70
     Davidson diagonalization with overlap
     ethr =  2.78E-08,  avg # of iterations =  2.0

     total cpu time spent up to now is        7.0 secs

     total energy              =     -65.17164957 Ry
     estimated scf accuracy    <       0.00000001 Ry

     iteration #  8     ecut=    60.00 Ry     beta= 0.70
     Davidson diagonalization with overlap
     ethr =  1.40E-10,  avg # of iterations =  3.5

     total cpu time spent up to now is        8.0 secs

     total energy              =     -65.17164958 Ry
     estimated scf accuracy    <          2.0E-10 Ry

     iteration #  9     ecut=    60.00 Ry     beta= 0.70
     Davidson diagonalization with overlap
     ethr =  2.47E-12,  avg # of iterations =  2.5

     total cpu time spent up to now is        8.7 secs

     total energy              =     -65.17164958 Ry
     estimated scf accuracy    <          1.2E-11 Ry

     iteration # 10     ecut=    60.00 Ry     beta= 0.70
     Davidson diagonalization with overlap
     ethr =  1.50E-13,  avg # of iterations =  2.0

     total cpu time spent up to now is        9.4 secs

     total energy              =     -65.17164958 Ry
     estimated scf accuracy    <          2.9E-12 Ry

     iteration # 11     ecut=    60.00 Ry     beta= 0.70
     Davidson diagonalization with overlap
     ethr =  1.00E-13,  avg # of iterations =  1.0

     total cpu time spent up to now is        9.9 secs

     End of self-consistent calculation

     Number of k-points >= 100: set verbosity='high' to print the bands.

     the Fermi energy is    11.9687 ev

!    total energy              =     -65.17164958 Ry

     total all-electron energy =      -656.281612 Ry
     estimated scf accuracy    <          6.4E-15 Ry

     The total energy is the sum of the following terms:
     one-electron contribution =       7.52285602 Ry
     hartree contribution      =       2.22931261 Ry
     xc contribution           =     -11.20778770 Ry
     ewald contribution        =     -21.95482944 Ry
     one-center paw contrib.   =     -41.76120108 Ry

     convergence has been achieved in  11 iterations

     Forces acting on atoms (cartesian axes, Ry/au):

     atom    1 type  1   force =    -0.00000000   -0.00000000    0.00000000
     atom    2 type  2   force =     0.00000000    0.00000000   -0.00000000

     Total force =     0.000000     Total SCF correction =     0.000000


     Computing stress (Cartesian axis) and pressure

          total   stress  (Ry/bohr**3)                   (kbar)     P=      458.55
   0.00311716  -0.00000000  -0.00000000          458.55       -0.00       -0.00
  -0.00000000   0.00311716   0.00000000           -0.00      458.55        0.00
  -0.00000000   0.00000000   0.00311716           -0.00        0.00      458.55


     BFGS Geometry Optimization
     Energy error            =      0.0E+00 Ry
     Gradient error          =      3.5E-32 Ry/Bohr

     bfgs converged in   1 scf cycles and   0 bfgs steps
     (criteria: energy <  1.0E-05 Ry, force <  1.0E-04 Ry/Bohr)

     End of BFGS Geometry Optimization

     Final energy             =     -65.1716495823 Ry
Begin final coordinates

ATOMIC_POSITIONS (crystal)
Si            0.2500000000        0.2500000000        0.2500000000
C             0.0000000000        0.0000000000        0.0000000000
End final coordinates



     Writing output data file ./tmp/SiC.save/
 
     init_run     :      0.28s CPU      0.43s WALL (       1 calls)
     electrons    :      7.17s CPU      8.73s WALL (       1 calls)
     forces       :      0.03s CPU      0.03s WALL (       1 calls)
     stress       :      0.08s CPU      0.08s WALL (       1 calls)

     Called by init_run:
     wfcinit      :      0.16s CPU      0.22s WALL (       1 calls)
     potinit      :      0.06s CPU      0.09s WALL (       1 calls)
     hinit0       :      0.04s CPU      0.11s WALL (       1 calls)

     Called by electrons:
     c_bands      :      5.75s CPU      7.21s WALL (      11 calls)
     sum_band     :      0.81s CPU      0.87s WALL (      11 calls)
     v_of_rho     :      0.02s CPU      0.02s WALL (      12 calls)
     newd         :      0.05s CPU      0.05s WALL (      12 calls)
     PAW_pot      :      0.57s CPU      0.61s WALL (      12 calls)
     mix_rho      :      0.00s CPU      0.00s WALL (      11 calls)

     Called by c_bands:
     init_us_2    :      0.05s CPU      0.06s WALL (    2600 calls)
     cegterg      :      5.63s CPU      7.07s WALL (    1144 calls)

     Called by *egterg:
     cdiaghg      :      2.78s CPU      3.83s WALL (    4142 calls)
     h_psi        :      1.81s CPU      2.13s WALL (    4246 calls)
     s_psi        :      0.03s CPU      0.03s WALL (    4246 calls)
     g_psi        :      0.01s CPU      0.01s WALL (    2998 calls)

     Called by h_psi:
     h_psi:calbec :      0.08s CPU      0.09s WALL (    4246 calls)
     vloc_psi     :      1.68s CPU      1.98s WALL (    4246 calls)
     add_vuspsi   :      0.04s CPU      0.04s WALL (    4246 calls)

     General routines
     calbec       :      0.09s CPU      0.11s WALL (    5910 calls)
     fft          :      0.02s CPU      0.08s WALL (     179 calls)
     ffts         :      0.00s CPU      0.00s WALL (      23 calls)
     fftw         :      1.89s CPU      2.20s WALL (   59276 calls)
     interpolate  :      0.00s CPU      0.00s WALL (      12 calls)
 
     Parallel routines
 
     PWSCF        :      7.92s CPU     10.58s WALL

 
   This run was terminated on:  17:35:34  21Oct2021            

=------------------------------------------------------------------------------=
   JOB DONE.
=------------------------------------------------------------------------------=
