
     Program PWSCF v.6.8 starts on 21Oct2021 at 17:33:45 

     This program is part of the open-source Quantum ESPRESSO suite
     for quantum simulation of materials; please cite
         "P. Giannozzi et al., J. Phys.:Condens. Matter 21 395502 (2009);
         "P. Giannozzi et al., J. Phys.:Condens. Matter 29 465901 (2017);
         "P. Giannozzi et al., J. Chem. Phys. 152 154105 (2020);
          URL http://www.quantum-espresso.org", 
     in publications or presentations arising from this work. More details at
     http://www.quantum-espresso.org/quote

     Parallel version (MPI), running on    24 processors

     MPI processes distributed on     1 nodes
     R & G space division:  proc/nbgrp/npool/nimage =      24
     58899 MiB available memory on the printing compute node when the environment starts
 
     Reading input from Dst01_04.in

     Current dimensions of program PWSCF are:
     Max number of different atomic species (ntypx) = 10
     Max number of k-points (npk) =  40000
     Max angular momentum in pseudopotentials (lmaxx) =  4
     Message from routine iosys:
     BEWARE:  force calculation with tetrahedra (not recommanded)
     Message from routine iosys:
     BEWARE: stress calculation with tetrahedra (not recommanded)
     file Si.pbe-n-kjpaw_psl.1.0.0.UPF: wavefunction(s)  3S 3P renormalized
     file C.pbe-n-kjpaw_psl.1.0.0.UPF: wavefunction(s)  2S 2P renormalized

     Subspace diagonalization in iterative solution of the eigenvalue problem:
     one sub-group per band group will be used
     scalapack distributed-memory algorithm (size of sub-group:  4*  4 procs)

 
     Parallelization info
     --------------------
     sticks:   dense  smooth     PW     G-vecs:    dense   smooth      PW
     Min          47      23      7                 1041      366      69
     Max          48      24      8                 1043      369      72
     Sum        1131     563    187                25011     8817    1687
 
     Using Slab Decomposition
 


     bravais-lattice index     =            0
     lattice parameter (alat)  =       8.2762  a.u.
     unit-cell volume          =     140.6915 (a.u.)^3
     number of atoms/cell      =            2
     number of atomic types    =            2
     number of electrons       =         8.00
     number of Kohn-Sham states=            8
     kinetic-energy cutoff     =      60.0000  Ry
     charge density cutoff     =     480.0000  Ry
     scf convergence threshold =      1.0E-12
     mixing beta               =       0.7000
     number of iterations used =            8  plain     mixing
     energy convergence thresh.=      1.0E-05
     force convergence thresh. =      1.0E-04
     Exchange-correlation= SLA  PW   PBX  PBC
                           (   1   4   3   4   0   0   0)
     nstep                     =           50


     celldm(1)=   8.276169  celldm(2)=   0.000000  celldm(3)=   0.000000
     celldm(4)=   0.000000  celldm(5)=   0.000000  celldm(6)=   0.000000

     crystal axes: (cart. coord. in units of alat)
               a(1) = (  -0.500900   0.000599   0.499699 )  
               a(2) = (  -0.003311   0.497587   0.496987 )  
               a(3) = (  -0.501199   0.500599   0.000299 )  

     reciprocal axes: (cart. coord. in units 2 pi/alat)
               b(1) = ( -1.001831 -1.003630  0.998169 )  
               b(2) = (  1.007901  1.008506  1.009116 )  
               b(3) = ( -1.000640  0.996368 -1.004239 )  


     PseudoPot. # 1 for Si read from file:
     /opt/pbe/Si.pbe-n-kjpaw_psl.1.0.0.UPF
     MD5 check sum: c0017aaf58f3391b47f56383898ff6ca
     Pseudo is Projector augmented-wave + core cor, Zval =  4.0
     Generated using 'atomic' code by A. Dal Corso  v.6.7MaX
     Shape of augmentation charge: PSQ
     Using radial grid of 1141 points,  6 beta functions with: 
                l(1) =   0
                l(2) =   0
                l(3) =   1
                l(4) =   1
                l(5) =   2
                l(6) =   2
     Q(r) pseudized with 0 coefficients 


     PseudoPot. # 2 for C  read from file:
     /opt/pbe/C.pbe-n-kjpaw_psl.1.0.0.UPF
     MD5 check sum: 8e1159f88321651dfc8dcabf1d078809
     Pseudo is Projector augmented-wave + core cor, Zval =  4.0
     Generated using 'atomic' code by A. Dal Corso  v.6.7MaX
     Shape of augmentation charge: PSQ
     Using radial grid of 1073 points,  4 beta functions with: 
                l(1) =   0
                l(2) =   0
                l(3) =   1
                l(4) =   1
     Q(r) pseudized with 0 coefficients 


     atomic species   valence    mass     pseudopotential
        Si             4.00    28.08500     Si( 1.00)
        C              4.00    12.01100     C ( 1.00)

     No symmetry found



   Cartesian axes

     site n.     atom                  positions (alat units)
         1           Si  tau(   1) = (  -0.2513525   0.2496963   0.2492462  )
         2           C   tau(   2) = (   0.0000000   0.0000000   0.0000000  )

     number of k points=  1376 (tetrahedron method)

     Number of k-points >= 100: set verbosity='high' to print them.

     Dense  grid:    25011 G-vectors     FFT dimensions: (  45,  45,  45)

     Smooth grid:     8817 G-vectors     FFT dimensions: (  30,  30,  30)

     Estimated max dynamical RAM per process >      15.20 MB

     Estimated total dynamical RAM >     364.87 MB

     Initial potential from superposition of free atoms

     starting charge    7.99940, renormalised to    8.00000
     Starting wfcs are    8 randomized atomic wfcs
     Checking if some PAW data can be deallocated... 

     total cpu time spent up to now is        2.8 secs

     Self-consistent Calculation

     iteration #  1     ecut=    60.00 Ry     beta= 0.70
     Davidson diagonalization with overlap
     ethr =  1.00E-02,  avg # of iterations =  3.9

     total cpu time spent up to now is       14.6 secs

     total energy              =     -65.03862797 Ry
     estimated scf accuracy    <       0.43712442 Ry

     iteration #  2     ecut=    60.00 Ry     beta= 0.70
     Davidson diagonalization with overlap
     ethr =  5.46E-03,  avg # of iterations =  2.0

     total cpu time spent up to now is       22.8 secs

     total energy              =     -65.16870745 Ry
     estimated scf accuracy    <       0.17972189 Ry

     iteration #  3     ecut=    60.00 Ry     beta= 0.70
     Davidson diagonalization with overlap
     ethr =  2.25E-03,  avg # of iterations =  1.0

     total cpu time spent up to now is       28.6 secs

     total energy              =     -65.19873429 Ry
     estimated scf accuracy    <       0.00197834 Ry

     iteration #  4     ecut=    60.00 Ry     beta= 0.70
     Davidson diagonalization with overlap
     ethr =  2.47E-05,  avg # of iterations =  4.7

     total cpu time spent up to now is       42.9 secs

     total energy              =     -65.19985190 Ry
     estimated scf accuracy    <       0.00092769 Ry

     iteration #  5     ecut=    60.00 Ry     beta= 0.70
     Davidson diagonalization with overlap
     ethr =  1.16E-05,  avg # of iterations =  1.8

     total cpu time spent up to now is       50.1 secs

     total energy              =     -65.20001570 Ry
     estimated scf accuracy    <       0.00000233 Ry

     iteration #  6     ecut=    60.00 Ry     beta= 0.70
     Davidson diagonalization with overlap
     c_bands:  1 eigenvalues not converged
     ethr =  2.91E-08,  avg # of iterations =  4.5

     total cpu time spent up to now is       64.1 secs

     total energy              =     -65.20002147 Ry
     estimated scf accuracy    <       0.00000616 Ry

     iteration #  7     ecut=    60.00 Ry     beta= 0.70
     Davidson diagonalization with overlap
     ethr =  2.91E-08,  avg # of iterations =  2.0

     total cpu time spent up to now is       72.2 secs

     total energy              =     -65.20002245 Ry
     estimated scf accuracy    <       0.00000005 Ry

     iteration #  8     ecut=    60.00 Ry     beta= 0.70
     Davidson diagonalization with overlap
     ethr =  6.17E-10,  avg # of iterations =  3.1

     total cpu time spent up to now is       82.5 secs

     total energy              =     -65.20002248 Ry
     estimated scf accuracy    <          1.3E-09 Ry

     iteration #  9     ecut=    60.00 Ry     beta= 0.70
     Davidson diagonalization with overlap
     ethr =  1.57E-11,  avg # of iterations =  2.4

     total cpu time spent up to now is       91.5 secs

     total energy              =     -65.20002248 Ry
     estimated scf accuracy    <          1.4E-11 Ry

     iteration # 10     ecut=    60.00 Ry     beta= 0.70
     Davidson diagonalization with overlap
     ethr =  1.69E-13,  avg # of iterations =  3.4

     total cpu time spent up to now is      102.5 secs

     total energy              =     -65.20002248 Ry
     estimated scf accuracy    <          3.9E-11 Ry

     iteration # 11     ecut=    60.00 Ry     beta= 0.70
     Davidson diagonalization with overlap
     ethr =  1.69E-13,  avg # of iterations =  2.0

     total cpu time spent up to now is      110.6 secs

     End of self-consistent calculation

     Number of k-points >= 100: set verbosity='high' to print the bands.

     the Fermi energy is    10.5182 ev

!    total energy              =     -65.20002248 Ry

     total all-electron energy =      -656.309985 Ry
     estimated scf accuracy    <          2.1E-14 Ry

     The total energy is the sum of the following terms:
     one-electron contribution =       6.04471573 Ry
     hartree contribution      =       2.33831593 Ry
     xc contribution           =     -10.96170036 Ry
     ewald contribution        =     -20.87833322 Ry
     one-center paw contrib.   =     -41.74302056 Ry

     convergence has been achieved in  11 iterations

     Forces acting on atoms (cartesian axes, Ry/au):

     atom    1 type  1   force =    -0.00162279   -0.00197369   -0.00233161
     atom    2 type  2   force =     0.00162279    0.00197369    0.00233161

     Total force =     0.004892     Total SCF correction =     0.000000


     Computing stress (Cartesian axis) and pressure

          total   stress  (Ry/bohr**3)                   (kbar)     P=       16.47
   0.00009111   0.00013271   0.00011123           13.40       19.52       16.36
   0.00013271   0.00011206   0.00008971           19.52       16.48       13.20
   0.00011123   0.00008971   0.00013270           16.36       13.20       19.52


     BFGS Geometry Optimization
     Energy error            =      0.0E+00 Ry
     Gradient error          =      2.3E-03 Ry/Bohr

     number of scf cycles    =   1
     number of bfgs steps    =   0

     energy             new  =     -65.2000224779 Ry

     new trust radius        =       0.0034590916 bohr
     new conv_thr            =            1.0E-12 Ry


ATOMIC_POSITIONS (crystal)
Si            0.2501545740        0.2492775694        0.2502415126
C            -0.0001545740        0.0007224306       -0.0002415126



     Writing output data file ./tmp/SiC.save/
     NEW-OLD atomic charge density approx. for the potential

     total cpu time spent up to now is      111.9 secs

     Self-consistent Calculation

     iteration #  1     ecut=    60.00 Ry     beta= 0.70
     Davidson diagonalization with overlap
     ethr =  1.00E-06,  avg # of iterations =  2.0

     Threshold (ethr) on eigenvalues was too large:
     Diagonalizing with lowered threshold

     Davidson diagonalization with overlap
     ethr =  3.49E-08,  avg # of iterations =  2.0

     total cpu time spent up to now is      126.2 secs

     total energy              =     -65.20003629 Ry
     estimated scf accuracy    <       0.00000305 Ry

     iteration #  2     ecut=    60.00 Ry     beta= 0.70
     Davidson diagonalization with overlap
     ethr =  3.81E-08,  avg # of iterations =  1.9

     total cpu time spent up to now is      133.7 secs

     total energy              =     -65.20003679 Ry
     estimated scf accuracy    <       0.00000004 Ry

     iteration #  3     ecut=    60.00 Ry     beta= 0.70
     Davidson diagonalization with overlap
     ethr =  5.21E-10,  avg # of iterations =  2.1

     total cpu time spent up to now is      141.8 secs

     total energy              =     -65.20003680 Ry
     estimated scf accuracy    <          3.3E-09 Ry

     iteration #  4     ecut=    60.00 Ry     beta= 0.70
     Davidson diagonalization with overlap
     ethr =  4.16E-11,  avg # of iterations =  2.1

     total cpu time spent up to now is      149.6 secs

     total energy              =     -65.20003680 Ry
     estimated scf accuracy    <          6.5E-11 Ry

     iteration #  5     ecut=    60.00 Ry     beta= 0.70
     Davidson diagonalization with overlap
     ethr =  8.12E-13,  avg # of iterations =  3.4

     total cpu time spent up to now is      160.5 secs

     total energy              =     -65.20003680 Ry
     estimated scf accuracy    <          4.8E-12 Ry

     iteration #  6     ecut=    60.00 Ry     beta= 0.70
     Davidson diagonalization with overlap
     ethr =  1.00E-13,  avg # of iterations =  1.6

     total cpu time spent up to now is      167.5 secs

     End of self-consistent calculation

     Number of k-points >= 100: set verbosity='high' to print the bands.

     the Fermi energy is    10.5179 ev

!    total energy              =     -65.20003680 Ry

     total all-electron energy =      -656.309999 Ry
     estimated scf accuracy    <          1.8E-13 Ry

     The total energy is the sum of the following terms:
     one-electron contribution =       6.04515746 Ry
     hartree contribution      =       2.33811332 Ry
     xc contribution           =     -10.96164000 Ry
     ewald contribution        =     -20.87865674 Ry
     one-center paw contrib.   =     -41.74301084 Ry

     convergence has been achieved in   6 iterations

     Forces acting on atoms (cartesian axes, Ry/au):

     atom    1 type  1   force =    -0.00030265   -0.00039068   -0.00047742
     atom    2 type  2   force =     0.00030265    0.00039068    0.00047742

     Total force =     0.000972     Total SCF correction =     0.000000


     Computing stress (Cartesian axis) and pressure

          total   stress  (Ry/bohr**3)                   (kbar)     P=       16.33
   0.00009019   0.00012179   0.00010178           13.27       17.92       14.97
   0.00012179   0.00011114   0.00008166           17.92       16.35       12.01
   0.00010178   0.00008166   0.00013177           14.97       12.01       19.38

     Energy error            =      1.4E-05 Ry
     Gradient error          =      4.8E-04 Ry/Bohr

     number of scf cycles    =   2
     number of bfgs steps    =   1

     energy             old  =     -65.2000224779 Ry
     energy             new  =     -65.2000367956 Ry

     CASE: energy            _new < energy            _old

     new trust radius        =       0.0008575972 bohr
     new conv_thr            =            1.4E-14 Ry


ATOMIC_POSITIONS (crystal)
Si            0.2501875647        0.2490994982        0.2503007818
C            -0.0001875647        0.0009005018       -0.0003007818



     Writing output data file ./tmp/SiC.save/
     NEW-OLD atomic charge density approx. for the potential

     total cpu time spent up to now is      168.8 secs

     Self-consistent Calculation

     iteration #  1     ecut=    60.00 Ry     beta= 0.70
     Davidson diagonalization with overlap
     ethr =  1.00E-06,  avg # of iterations =  2.0

     Threshold (ethr) on eigenvalues was too large:
     Diagonalizing with lowered threshold

     Davidson diagonalization with overlap
     ethr =  2.05E-09,  avg # of iterations =  2.0

     total cpu time spent up to now is      183.2 secs

     total energy              =     -65.20003736 Ry
     estimated scf accuracy    <       0.00000019 Ry

     iteration #  2     ecut=    60.00 Ry     beta= 0.70
     Davidson diagonalization with overlap
     ethr =  2.33E-09,  avg # of iterations =  1.9

     total cpu time spent up to now is      190.6 secs

     total energy              =     -65.20003739 Ry
     estimated scf accuracy    <          2.5E-09 Ry

     iteration #  3     ecut=    60.00 Ry     beta= 0.70
     Davidson diagonalization with overlap
     ethr =  3.16E-11,  avg # of iterations =  2.1

     total cpu time spent up to now is      198.9 secs

     total energy              =     -65.20003739 Ry
     estimated scf accuracy    <          2.0E-10 Ry

     iteration #  4     ecut=    60.00 Ry     beta= 0.70
     Davidson diagonalization with overlap
     ethr =  2.53E-12,  avg # of iterations =  2.1

     total cpu time spent up to now is      206.7 secs

     total energy              =     -65.20003739 Ry
     estimated scf accuracy    <          3.5E-12 Ry

     iteration #  5     ecut=    60.00 Ry     beta= 0.70
     Davidson diagonalization with overlap
     ethr =  1.00E-13,  avg # of iterations =  3.0

     total cpu time spent up to now is      216.6 secs

     total energy              =     -65.20003739 Ry
     estimated scf accuracy    <          2.5E-13 Ry

     iteration #  6     ecut=    60.00 Ry     beta= 0.70
     Davidson diagonalization with overlap
     ethr =  1.00E-13,  avg # of iterations =  1.0

     total cpu time spent up to now is      222.4 secs

     End of self-consistent calculation

     Number of k-points >= 100: set verbosity='high' to print the bands.

     the Fermi energy is    10.5179 ev

!    total energy              =     -65.20003739 Ry

     total all-electron energy =      -656.310000 Ry
     estimated scf accuracy    <          1.1E-14 Ry

     The total energy is the sum of the following terms:
     one-electron contribution =       6.04526128 Ry
     hartree contribution      =       2.33806588 Ry
     xc contribution           =     -10.96162602 Ry
     ewald contribution        =     -20.87872980 Ry
     one-center paw contrib.   =     -41.74300872 Ry

     convergence has been achieved in   6 iterations

     Forces acting on atoms (cartesian axes, Ry/au):

     atom    1 type  1   force =     0.00000122   -0.00000329   -0.00000715
     atom    2 type  2   force =    -0.00000122    0.00000329    0.00000715

     Total force =     0.000011     Total SCF correction =     0.000000


     Computing stress (Cartesian axis) and pressure

          total   stress  (Ry/bohr**3)                   (kbar)     P=       16.30
   0.00009000   0.00011903   0.00009948           13.24       17.51       14.63
   0.00011903   0.00011094   0.00007981           17.51       16.32       11.74
   0.00009948   0.00007981   0.00013157           14.63       11.74       19.35

     Energy error            =      5.9E-07 Ry
     Gradient error          =      7.1E-06 Ry/Bohr

     bfgs converged in   3 scf cycles and   2 bfgs steps
     (criteria: energy <  1.0E-05 Ry, force <  1.0E-04 Ry/Bohr)

     End of BFGS Geometry Optimization

     Final energy             =     -65.2000373900 Ry

     File ./tmp/SiC.bfgs deleted, as requested
Begin final coordinates

ATOMIC_POSITIONS (crystal)
Si            0.2501875647        0.2490994982        0.2503007818
C            -0.0001875647        0.0009005018       -0.0003007818
End final coordinates



     Writing output data file ./tmp/SiC.save/
 
     init_run     :      2.11s CPU      2.58s WALL (       1 calls)
     electrons    :    176.57s CPU    216.93s WALL (       3 calls)
     update_pot   :      0.20s CPU      0.21s WALL (       2 calls)
     forces       :      0.70s CPU      0.72s WALL (       3 calls)
     stress       :      2.03s CPU      2.06s WALL (       3 calls)

     Called by init_run:
     wfcinit      :      1.94s CPU      2.39s WALL (       1 calls)
     potinit      :      0.07s CPU      0.08s WALL (       1 calls)
     hinit0       :      0.08s CPU      0.09s WALL (       1 calls)

     Called by electrons:
     c_bands      :    162.89s CPU    201.32s WALL (      25 calls)
     sum_band     :     12.35s CPU     14.19s WALL (      25 calls)
     v_of_rho     :      0.05s CPU      0.06s WALL (      26 calls)
     newd         :      0.16s CPU      0.16s WALL (      26 calls)
     PAW_pot      :      1.36s CPU      1.41s WALL (      28 calls)
     mix_rho      :      0.01s CPU      0.01s WALL (      25 calls)

     Called by c_bands:
     init_us_2    :      1.66s CPU      2.09s WALL (   81184 calls)
     cegterg      :    158.70s CPU    196.60s WALL (   34400 calls)

     Called by *egterg:
     cdiaghg      :     74.78s CPU    101.49s WALL (  111566 calls)
     h_psi        :     51.80s CPU     60.41s WALL (  118446 calls)
     s_psi        :      0.75s CPU      0.94s WALL (  118446 calls)
     g_psi        :      0.12s CPU      0.23s WALL (   82670 calls)

     Called by h_psi:
     h_psi:calbec :      1.91s CPU      2.48s WALL (  118446 calls)
     vloc_psi     :     48.28s CPU     56.09s WALL (  118446 calls)
     add_vuspsi   :      1.13s CPU      1.16s WALL (  118446 calls)

     General routines
     calbec       :      2.73s CPU      3.39s WALL (  176238 calls)
     fft          :      0.05s CPU      0.07s WALL (     411 calls)
     ffts         :      0.00s CPU      0.00s WALL (      51 calls)
     fftw         :     55.08s CPU     63.16s WALL ( 1681454 calls)
     interpolate  :      0.01s CPU      0.01s WALL (      26 calls)
 
     Parallel routines
 
     PWSCF        :   3m 3.24s CPU   3m49.39s WALL

 
   This run was terminated on:  17:37:35  21Oct2021            

=------------------------------------------------------------------------------=
   JOB DONE.
=------------------------------------------------------------------------------=
