
     Program PWSCF v.6.8 starts on 21Oct2021 at 17:52:38 

     This program is part of the open-source Quantum ESPRESSO suite
     for quantum simulation of materials; please cite
         "P. Giannozzi et al., J. Phys.:Condens. Matter 21 395502 (2009);
         "P. Giannozzi et al., J. Phys.:Condens. Matter 29 465901 (2017);
         "P. Giannozzi et al., J. Chem. Phys. 152 154105 (2020);
          URL http://www.quantum-espresso.org", 
     in publications or presentations arising from this work. More details at
     http://www.quantum-espresso.org/quote

     Parallel version (MPI), running on    24 processors

     MPI processes distributed on     1 nodes
     R & G space division:  proc/nbgrp/npool/nimage =      24
     58894 MiB available memory on the printing compute node when the environment starts
 
     Reading input from Dst01_09.in

     Current dimensions of program PWSCF are:
     Max number of different atomic species (ntypx) = 10
     Max number of k-points (npk) =  40000
     Max angular momentum in pseudopotentials (lmaxx) =  4
     Message from routine iosys:
     BEWARE:  force calculation with tetrahedra (not recommanded)
     Message from routine iosys:
     BEWARE: stress calculation with tetrahedra (not recommanded)
     file Si.pbe-n-kjpaw_psl.1.0.0.UPF: wavefunction(s)  3S 3P renormalized
     file C.pbe-n-kjpaw_psl.1.0.0.UPF: wavefunction(s)  2S 2P renormalized

     Subspace diagonalization in iterative solution of the eigenvalue problem:
     one sub-group per band group will be used
     scalapack distributed-memory algorithm (size of sub-group:  4*  4 procs)

 
     Parallelization info
     --------------------
     sticks:   dense  smooth     PW     G-vecs:    dense   smooth      PW
     Min          47      23      8                 1058      372      71
     Max          48      24      9                 1063      377      73
     Sum        1147     575    195                25453     8999    1735
 
     Using Slab Decomposition
 


     bravais-lattice index     =            0
     lattice parameter (alat)  =       8.2762  a.u.
     unit-cell volume          =     143.2339 (a.u.)^3
     number of atoms/cell      =            2
     number of atomic types    =            2
     number of electrons       =         8.00
     number of Kohn-Sham states=            8
     kinetic-energy cutoff     =      60.0000  Ry
     charge density cutoff     =     480.0000  Ry
     scf convergence threshold =      1.0E-12
     mixing beta               =       0.7000
     number of iterations used =            8  plain     mixing
     energy convergence thresh.=      1.0E-05
     force convergence thresh. =      1.0E-04
     Exchange-correlation= SLA  PW   PBX  PBC
                           (   1   4   3   4   0   0   0)
     nstep                     =           50


     celldm(1)=   8.276169  celldm(2)=   0.000000  celldm(3)=   0.000000
     celldm(4)=   0.000000  celldm(5)=   0.000000  celldm(6)=   0.000000

     crystal axes: (cart. coord. in units of alat)
               a(1) = (  -0.498650  -0.000903   0.500447 )  
               a(2) = (   0.004926   0.503572   0.504471 )  
               a(3) = (  -0.498198   0.499098  -0.000451 )  

     reciprocal axes: (cart. coord. in units 2 pi/alat)
               b(1) = ( -0.997368 -0.994664  1.002632 )  
               b(2) = (  0.988520  0.987631  0.986751 )  
               b(3) = ( -0.999187  1.005331 -0.993784 )  


     PseudoPot. # 1 for Si read from file:
     /opt/pbe/Si.pbe-n-kjpaw_psl.1.0.0.UPF
     MD5 check sum: c0017aaf58f3391b47f56383898ff6ca
     Pseudo is Projector augmented-wave + core cor, Zval =  4.0
     Generated using 'atomic' code by A. Dal Corso  v.6.7MaX
     Shape of augmentation charge: PSQ
     Using radial grid of 1141 points,  6 beta functions with: 
                l(1) =   0
                l(2) =   0
                l(3) =   1
                l(4) =   1
                l(5) =   2
                l(6) =   2
     Q(r) pseudized with 0 coefficients 


     PseudoPot. # 2 for C  read from file:
     /opt/pbe/C.pbe-n-kjpaw_psl.1.0.0.UPF
     MD5 check sum: 8e1159f88321651dfc8dcabf1d078809
     Pseudo is Projector augmented-wave + core cor, Zval =  4.0
     Generated using 'atomic' code by A. Dal Corso  v.6.7MaX
     Shape of augmentation charge: PSQ
     Using radial grid of 1073 points,  4 beta functions with: 
                l(1) =   0
                l(2) =   0
                l(3) =   1
                l(4) =   1
     Q(r) pseudized with 0 coefficients 


     atomic species   valence    mass     pseudopotential
        Si             4.00    28.08500     Si( 1.00)
        C              4.00    12.01100     C ( 1.00)

     No symmetry found



   Cartesian axes

     site n.     atom                  positions (alat units)
         1           Si  tau(   1) = (  -0.2479805   0.2504418   0.2511167  )
         2           C   tau(   2) = (   0.0000000   0.0000000   0.0000000  )

     number of k points=  1376 (tetrahedron method)

     Number of k-points >= 100: set verbosity='high' to print them.

     Dense  grid:    25453 G-vectors     FFT dimensions: (  45,  45,  45)

     Smooth grid:     8999 G-vectors     FFT dimensions: (  30,  30,  30)

     Estimated max dynamical RAM per process >      15.27 MB

     Estimated total dynamical RAM >     366.56 MB

     Initial potential from superposition of free atoms

     starting charge    7.99940, renormalised to    8.00000
     Starting wfcs are    8 randomized atomic wfcs
     Checking if some PAW data can be deallocated... 

     total cpu time spent up to now is        2.9 secs

     Self-consistent Calculation

     iteration #  1     ecut=    60.00 Ry     beta= 0.70
     Davidson diagonalization with overlap
     ethr =  1.00E-02,  avg # of iterations =  3.8

     total cpu time spent up to now is       14.4 secs

     total energy              =     -65.03979937 Ry
     estimated scf accuracy    <       0.42981742 Ry

     iteration #  2     ecut=    60.00 Ry     beta= 0.70
     Davidson diagonalization with overlap
     ethr =  5.37E-03,  avg # of iterations =  2.0

     total cpu time spent up to now is       22.7 secs

     total energy              =     -65.16750761 Ry
     estimated scf accuracy    <       0.18501796 Ry

     iteration #  3     ecut=    60.00 Ry     beta= 0.70
     Davidson diagonalization with overlap
     ethr =  2.31E-03,  avg # of iterations =  1.0

     total cpu time spent up to now is       28.5 secs

     total energy              =     -65.19851341 Ry
     estimated scf accuracy    <       0.00199891 Ry

     iteration #  4     ecut=    60.00 Ry     beta= 0.70
     Davidson diagonalization with overlap
     ethr =  2.50E-05,  avg # of iterations =  4.7

     total cpu time spent up to now is       42.9 secs

     total energy              =     -65.19965664 Ry
     estimated scf accuracy    <       0.00093361 Ry

     iteration #  5     ecut=    60.00 Ry     beta= 0.70
     Davidson diagonalization with overlap
     ethr =  1.17E-05,  avg # of iterations =  1.7

     total cpu time spent up to now is       50.0 secs

     total energy              =     -65.19981655 Ry
     estimated scf accuracy    <       0.00000295 Ry

     iteration #  6     ecut=    60.00 Ry     beta= 0.70
     Davidson diagonalization with overlap
     c_bands:  1 eigenvalues not converged
     c_bands:  1 eigenvalues not converged
     ethr =  3.68E-08,  avg # of iterations =  4.5

     total cpu time spent up to now is       63.8 secs

     total energy              =     -65.19982263 Ry
     estimated scf accuracy    <       0.00000725 Ry

     iteration #  7     ecut=    60.00 Ry     beta= 0.70
     Davidson diagonalization with overlap
     ethr =  3.68E-08,  avg # of iterations =  2.0

     total cpu time spent up to now is       72.0 secs

     total energy              =     -65.19982390 Ry
     estimated scf accuracy    <       0.00000002 Ry

     iteration #  8     ecut=    60.00 Ry     beta= 0.70
     Davidson diagonalization with overlap
     ethr =  2.79E-10,  avg # of iterations =  3.7

     total cpu time spent up to now is       83.8 secs

     total energy              =     -65.19982392 Ry
     estimated scf accuracy    <          8.3E-09 Ry

     iteration #  9     ecut=    60.00 Ry     beta= 0.70
     Davidson diagonalization with overlap
     ethr =  1.03E-10,  avg # of iterations =  1.9

     total cpu time spent up to now is       91.4 secs

     total energy              =     -65.19982392 Ry
     estimated scf accuracy    <          4.0E-11 Ry

     iteration # 10     ecut=    60.00 Ry     beta= 0.70
     Davidson diagonalization with overlap
     ethr =  5.00E-13,  avg # of iterations =  3.7

     total cpu time spent up to now is      103.1 secs

     total energy              =     -65.19982392 Ry
     estimated scf accuracy    <          6.9E-11 Ry

     iteration # 11     ecut=    60.00 Ry     beta= 0.70
     Davidson diagonalization with overlap
     ethr =  5.00E-13,  avg # of iterations =  1.9

     total cpu time spent up to now is      110.5 secs

     total energy              =     -65.19982392 Ry
     estimated scf accuracy    <          3.2E-12 Ry

     iteration # 12     ecut=    60.00 Ry     beta= 0.70
     Davidson diagonalization with overlap
     ethr =  1.00E-13,  avg # of iterations =  1.3

     total cpu time spent up to now is      116.9 secs

     End of self-consistent calculation

     Number of k-points >= 100: set verbosity='high' to print the bands.

     the Fermi energy is    10.2260 ev

!    total energy              =     -65.19982392 Ry

     total all-electron energy =      -656.309786 Ry
     estimated scf accuracy    <          3.0E-15 Ry

     The total energy is the sum of the following terms:
     one-electron contribution =       5.87696568 Ry
     hartree contribution      =       2.35209425 Ry
     xc contribution           =     -10.93402460 Ry
     ewald contribution        =     -20.75357056 Ry
     one-center paw contrib.   =     -41.74128870 Ry

     convergence has been achieved in  12 iterations

     Forces acting on atoms (cartesian axes, Ry/au):

     atom    1 type  1   force =     0.00172268    0.00226670    0.00279519
     atom    2 type  2   force =    -0.00172268   -0.00226670   -0.00279519

     Total force =     0.005642     Total SCF correction =     0.000000


     Computing stress (Cartesian axis) and pressure

          total   stress  (Ry/bohr**3)                   (kbar)     P=      -21.25
  -0.00011294  -0.00018567  -0.00015338          -16.61      -27.31      -22.56
  -0.00018567  -0.00014419  -0.00012119          -27.31      -21.21      -17.83
  -0.00015338  -0.00012119  -0.00017614          -22.56      -17.83      -25.91


     BFGS Geometry Optimization
     Energy error            =      0.0E+00 Ry
     Gradient error          =      2.8E-03 Ry/Bohr

     number of scf cycles    =   1
     number of bfgs steps    =   0

     energy             new  =     -65.1998239220 Ry

     new trust radius        =       0.0039898107 bohr
     new conv_thr            =            1.0E-12 Ry


ATOMIC_POSITIONS (crystal)
Si            0.2498586063        0.2508095185        0.2497317226
C             0.0001413937       -0.0008095185        0.0002682774



     Writing output data file ./tmp/SiC.save/
     NEW-OLD atomic charge density approx. for the potential

     total cpu time spent up to now is      118.2 secs

     Self-consistent Calculation

     iteration #  1     ecut=    60.00 Ry     beta= 0.70
     Davidson diagonalization with overlap
     ethr =  1.00E-06,  avg # of iterations =  2.1

     Threshold (ethr) on eigenvalues was too large:
     Diagonalizing with lowered threshold

     Davidson diagonalization with overlap
     ethr =  4.30E-08,  avg # of iterations =  1.9

     total cpu time spent up to now is      132.5 secs

     total energy              =     -65.19984371 Ry
     estimated scf accuracy    <       0.00000373 Ry

     iteration #  2     ecut=    60.00 Ry     beta= 0.70
     Davidson diagonalization with overlap
     ethr =  4.67E-08,  avg # of iterations =  1.9

     total cpu time spent up to now is      140.0 secs

     total energy              =     -65.19984433 Ry
     estimated scf accuracy    <       0.00000006 Ry

     iteration #  3     ecut=    60.00 Ry     beta= 0.70
     Davidson diagonalization with overlap
     ethr =  7.00E-10,  avg # of iterations =  2.0

     total cpu time spent up to now is      148.1 secs

     total energy              =     -65.19984434 Ry
     estimated scf accuracy    <          4.4E-09 Ry

     iteration #  4     ecut=    60.00 Ry     beta= 0.70
     Davidson diagonalization with overlap
     ethr =  5.56E-11,  avg # of iterations =  2.2

     total cpu time spent up to now is      156.0 secs

     total energy              =     -65.19984434 Ry
     estimated scf accuracy    <          1.5E-10 Ry

     iteration #  5     ecut=    60.00 Ry     beta= 0.70
     Davidson diagonalization with overlap
     ethr =  1.87E-12,  avg # of iterations =  3.1

     total cpu time spent up to now is      166.4 secs

     total energy              =     -65.19984434 Ry
     estimated scf accuracy    <          9.1E-12 Ry

     iteration #  6     ecut=    60.00 Ry     beta= 0.70
     Davidson diagonalization with overlap
     ethr =  1.14E-13,  avg # of iterations =  2.2

     total cpu time spent up to now is      174.8 secs

     End of self-consistent calculation

     Number of k-points >= 100: set verbosity='high' to print the bands.

     the Fermi energy is    10.2250 ev

!    total energy              =     -65.19984434 Ry

     total all-electron energy =      -656.309806 Ry
     estimated scf accuracy    <          2.5E-13 Ry

     The total energy is the sum of the following terms:
     one-electron contribution =       5.87772806 Ry
     hartree contribution      =       2.35174525 Ry
     xc contribution           =     -10.93392242 Ry
     ewald contribution        =     -20.75412241 Ry
     one-center paw contrib.   =     -41.74127282 Ry

     convergence has been achieved in   6 iterations

     Forces acting on atoms (cartesian axes, Ry/au):

     atom    1 type  1   force =     0.00052361    0.00063921    0.00075783
     atom    2 type  2   force =    -0.00052361   -0.00063921   -0.00075783

     Total force =     0.001586     Total SCF correction =     0.000001


     Computing stress (Cartesian axis) and pressure

          total   stress  (Ry/bohr**3)                   (kbar)     P=      -21.47
  -0.00011442  -0.00017584  -0.00014578          -16.83      -25.87      -21.45
  -0.00017584  -0.00014569  -0.00011600          -25.87      -21.43      -17.06
  -0.00014578  -0.00011600  -0.00017765          -21.45      -17.06      -26.13

     Energy error            =      2.0E-05 Ry
     Gradient error          =      7.6E-04 Ry/Bohr

     number of scf cycles    =   2
     number of bfgs steps    =   1

     energy             old  =     -65.1998239220 Ry
     energy             new  =     -65.1998443386 Ry

     CASE: energy            _new < energy            _old

     new trust radius        =       0.0015599604 bohr
     new conv_thr            =            2.0E-14 Ry


ATOMIC_POSITIONS (crystal)
Si            0.2497916700        0.2511283788        0.2496251924
C             0.0002083300       -0.0011283788        0.0003748076



     Writing output data file ./tmp/SiC.save/
     NEW-OLD atomic charge density approx. for the potential

     total cpu time spent up to now is      176.1 secs

     Self-consistent Calculation

     iteration #  1     ecut=    60.00 Ry     beta= 0.70
     Davidson diagonalization with overlap
     ethr =  1.00E-06,  avg # of iterations =  2.0

     Threshold (ethr) on eigenvalues was too large:
     Diagonalizing with lowered threshold

     Davidson diagonalization with overlap
     ethr =  6.48E-09,  avg # of iterations =  2.0

     total cpu time spent up to now is      190.4 secs

     total energy              =     -65.19984597 Ry
     estimated scf accuracy    <       0.00000057 Ry

     iteration #  2     ecut=    60.00 Ry     beta= 0.70
     Davidson diagonalization with overlap
     ethr =  7.18E-09,  avg # of iterations =  1.9

     total cpu time spent up to now is      197.9 secs

     total energy              =     -65.19984607 Ry
     estimated scf accuracy    <          8.5E-09 Ry

     iteration #  3     ecut=    60.00 Ry     beta= 0.70
     Davidson diagonalization with overlap
     ethr =  1.07E-10,  avg # of iterations =  2.1

     total cpu time spent up to now is      206.0 secs

     total energy              =     -65.19984607 Ry
     estimated scf accuracy    <          6.8E-10 Ry

     iteration #  4     ecut=    60.00 Ry     beta= 0.70
     Davidson diagonalization with overlap
     ethr =  8.46E-12,  avg # of iterations =  2.1

     total cpu time spent up to now is      213.9 secs

     total energy              =     -65.19984607 Ry
     estimated scf accuracy    <          1.9E-11 Ry

     iteration #  5     ecut=    60.00 Ry     beta= 0.70
     Davidson diagonalization with overlap
     ethr =  2.38E-13,  avg # of iterations =  3.2

     total cpu time spent up to now is      224.5 secs

     total energy              =     -65.19984607 Ry
     estimated scf accuracy    <          1.4E-12 Ry

     iteration #  6     ecut=    60.00 Ry     beta= 0.70
     Davidson diagonalization with overlap
     ethr =  1.00E-13,  avg # of iterations =  1.0

     total cpu time spent up to now is      230.3 secs

     total energy              =     -65.19984607 Ry
     estimated scf accuracy    <          3.7E-14 Ry

     iteration #  7     ecut=    60.00 Ry     beta= 0.70
     Davidson diagonalization with overlap
     ethr =  1.00E-13,  avg # of iterations =  1.0

     total cpu time spent up to now is      236.2 secs

     End of self-consistent calculation

     Number of k-points >= 100: set verbosity='high' to print the bands.

     the Fermi energy is    10.2246 ev

!    total energy              =     -65.19984607 Ry

     total all-electron energy =      -656.309808 Ry
     estimated scf accuracy    <          9.2E-16 Ry

     The total energy is the sum of the following terms:
     one-electron contribution =       5.87801303 Ry
     hartree contribution      =       2.35161514 Ry
     xc contribution           =     -10.93388465 Ry
     ewald contribution        =     -20.75432241 Ry
     one-center paw contrib.   =     -41.74126718 Ry

     convergence has been achieved in   7 iterations

     Forces acting on atoms (cartesian axes, Ry/au):

     atom    1 type  1   force =     0.00000400   -0.00000600   -0.00001483
     atom    2 type  2   force =    -0.00000400    0.00000600    0.00001483

     Total force =     0.000023     Total SCF correction =     0.000000


     Computing stress (Cartesian axis) and pressure

          total   stress  (Ry/bohr**3)                   (kbar)     P=      -21.54
  -0.00011492  -0.00017212  -0.00014276          -16.91      -25.32      -21.00
  -0.00017212  -0.00014621  -0.00011368          -25.32      -21.51      -16.72
  -0.00014276  -0.00011368  -0.00017819          -21.00      -16.72      -26.21

     Energy error            =      1.7E-06 Ry
     Gradient error          =      1.5E-05 Ry/Bohr

     bfgs converged in   3 scf cycles and   2 bfgs steps
     (criteria: energy <  1.0E-05 Ry, force <  1.0E-04 Ry/Bohr)

     End of BFGS Geometry Optimization

     Final energy             =     -65.1998460713 Ry

     File ./tmp/SiC.bfgs deleted, as requested
Begin final coordinates

ATOMIC_POSITIONS (crystal)
Si            0.2497916700        0.2511283788        0.2496251924
C             0.0002083300       -0.0011283788        0.0003748076
End final coordinates



     Writing output data file ./tmp/SiC.save/
 
     init_run     :      2.12s CPU      2.63s WALL (       1 calls)
     electrons    :    187.96s CPU    230.64s WALL (       3 calls)
     update_pot   :      0.20s CPU      0.20s WALL (       2 calls)
     forces       :      0.69s CPU      0.72s WALL (       3 calls)
     stress       :      2.08s CPU      2.11s WALL (       3 calls)

     Called by init_run:
     wfcinit      :      1.93s CPU      2.40s WALL (       1 calls)
     potinit      :      0.07s CPU      0.09s WALL (       1 calls)
     hinit0       :      0.09s CPU      0.12s WALL (       1 calls)

     Called by electrons:
     c_bands      :    172.95s CPU    213.59s WALL (      27 calls)
     sum_band     :     13.56s CPU     15.50s WALL (      27 calls)
     v_of_rho     :      0.06s CPU      0.06s WALL (      28 calls)
     newd         :      0.18s CPU      0.18s WALL (      28 calls)
     PAW_pot      :      1.44s CPU      1.50s WALL (      30 calls)
     mix_rho      :      0.01s CPU      0.01s WALL (      27 calls)

     Called by c_bands:
     init_us_2    :      1.90s CPU      2.34s WALL (   86688 calls)
     cegterg      :    168.26s CPU    208.35s WALL (   37152 calls)

     Called by *egterg:
     cdiaghg      :     79.00s CPU    107.13s WALL (  118410 calls)
     h_psi        :     55.96s CPU     65.33s WALL (  125290 calls)
     s_psi        :      0.84s CPU      1.00s WALL (  125290 calls)
     g_psi        :      0.14s CPU      0.26s WALL (   86762 calls)

     Called by h_psi:
     h_psi:calbec :      1.88s CPU      2.37s WALL (  125290 calls)
     vloc_psi     :     52.44s CPU     60.98s WALL (  125290 calls)
     add_vuspsi   :      1.13s CPU      1.26s WALL (  125290 calls)

     General routines
     calbec       :      2.59s CPU      3.17s WALL (  185834 calls)
     fft          :      0.07s CPU      0.10s WALL (     437 calls)
     ffts         :      0.00s CPU      0.00s WALL (      55 calls)
     fftw         :     59.85s CPU     68.75s WALL ( 1798260 calls)
     interpolate  :      0.01s CPU      0.01s WALL (      28 calls)
 
     Parallel routines
 
     PWSCF        :   3m14.67s CPU   4m 3.24s WALL

 
   This run was terminated on:  17:56:41  21Oct2021            

=------------------------------------------------------------------------------=
   JOB DONE.
=------------------------------------------------------------------------------=
